n -t 0 -s 0 -S DLABEL -l "TCPSource" -L ""
n -t 0 -s 2 -S DLABEL -l "TCPSink" -L ""
V -t * -v 1.0a5 -a 0
A -t * -n 1 -p 0 -o 0x7fffffff -c 30 -a 1
A -t * -h 1 -m 1073741823 -s 0
c -t * -i 1 -n blue
n -t * -a 0 -s 0 -S UP -v circle -c black -i black
n -t * -a 1 -s 1 -S UP -v circle -c black -i black
n -t * -a 2 -s 2 -S UP -v circle -c black -i black
l -t * -s 0 -d 1 -S UP -r 8000000 -D 0.01 -c black
l -t * -s 1 -d 2 -S UP -r 8000000 -D 0.01 -c black
+ -t 0.2 -s 0 -d 1 -p tcp -e 40 -c 1 -i 0 -a 1 -x {0.0 2.0 0 ------- null}
- -t 0.2 -s 0 -d 1 -p tcp -e 40 -c 1 -i 0 -a 1 -x {0.0 2.0 0 ------- null}
h -t 0.2 -s 0 -d 1 -p tcp -e 40 -c 1 -i 0 -a 1 -x {0.0 2.0 -1 ------- null}
r -t 0.21004 -s 0 -d 1 -p tcp -e 40 -c 1 -i 0 -a 1 -x {0.0 2.0 0 ------- null}
+ -t 0.21004 -s 1 -d 2 -p tcp -e 40 -c 1 -i 0 -a 1 -x {0.0 2.0 0 ------- null}
- -t 0.21004 -s 1 -d 2 -p tcp -e 40 -c 1 -i 0 -a 1 -x {0.0 2.0 0 ------- null}
h -t 0.21004 -s 1 -d 2 -p tcp -e 40 -c 1 -i 0 -a 1 -x {0.0 2.0 -1 ------- null}
r -t 0.22008 -s 1 -d 2 -p tcp -e 40 -c 1 -i 0 -a 1 -x {0.0 2.0 0 ------- null}
+ -t 0.22008 -s 2 -d 1 -p ack -e 40 -c 1 -i 1 -a 1 -x {2.0 0.0 0 ------- null}
- -t 0.22008 -s 2 -d 1 -p ack -e 40 -c 1 -i 1 -a 1 -x {2.0 0.0 0 ------- null}
h -t 0.22008 -s 2 -d 1 -p ack -e 40 -c 1 -i 1 -a 1 -x {2.0 0.0 -1 ------- null}
r -t 0.23012 -s 2 -d 1 -p ack -e 40 -c 1 -i 1 -a 1 -x {2.0 0.0 0 ------- null}
+ -t 0.23012 -s 1 -d 0 -p ack -e 40 -c 1 -i 1 -a 1 -x {2.0 0.0 0 ------- null}
- -t 0.23012 -s 1 -d 0 -p ack -e 40 -c 1 -i 1 -a 1 -x {2.0 0.0 0 ------- null}
h -t 0.23012 -s 1 -d 0 -p ack -e 40 -c 1 -i 1 -a 1 -x {2.0 0.0 -1 ------- null}
r -t 0.24016 -s 1 -d 0 -p ack -e 40 -c 1 -i 1 -a 1 -x {2.0 0.0 0 ------- null}
+ -t 0.24016 -s 0 -d 1 -p tcp -e 1040 -c 1 -i 2 -a 1 -x {0.0 2.0 1 ------- null}
- -t 0.24016 -s 0 -d 1 -p tcp -e 1040 -c 1 -i 2 -a 1 -x {0.0 2.0 1 ------- null}
h -t 0.24016 -s 0 -d 1 -p tcp -e 1040 -c 1 -i 2 -a 1 -x {0.0 2.0 -1 ------- null}
+ -t 0.24016 -s 0 -d 1 -p tcp -e 1040 -c 1 -i 3 -a 1 -x {0.0 2.0 2 ------- null}
- -t 0.2412 -s 0 -d 1 -p tcp -e 1040 -c 1 -i 3 -a 1 -x {0.0 2.0 2 ------- null}
h -t 0.2412 -s 0 -d 1 -p tcp -e 1040 -c 1 -i 3 -a 1 -x {0.0 2.0 -1 ------- null}
r -t 0.2512 -s 0 -d 1 -p tcp -e 1040 -c 1 -i 2 -a 1 -x {0.0 2.0 1 ------- null}
+ -t 0.2512 -s 1 -d 2 -p tcp -e 1040 -c 1 -i 2 -a 1 -x {0.0 2.0 1 ------- null}
- -t 0.2512 -s 1 -d 2 -p tcp -e 1040 -c 1 -i 2 -a 1 -x {0.0 2.0 1 ------- null}
h -t 0.2512 -s 1 -d 2 -p tcp -e 1040 -c 1 -i 2 -a 1 -x {0.0 2.0 -1 ------- null}
r -t 0.25224 -s 0 -d 1 -p tcp -e 1040 -c 1 -i 3 -a 1 -x {0.0 2.0 2 ------- null}
+ -t 0.25224 -s 1 -d 2 -p tcp -e 1040 -c 1 -i 3 -a 1 -x {0.0 2.0 2 ------- null}
- -t 0.25224 -s 1 -d 2 -p tcp -e 1040 -c 1 -i 3 -a 1 -x {0.0 2.0 2 ------- null}
h -t 0.25224 -s 1 -d 2 -p tcp -e 1040 -c 1 -i 3 -a 1 -x {0.0 2.0 -1 ------- null}
r -t 0.26224 -s 1 -d 2 -p tcp -e 1040 -c 1 -i 2 -a 1 -x {0.0 2.0 1 ------- null}
+ -t 0.26224 -s 2 -d 1 -p ack -e 40 -c 1 -i 4 -a 1 -x {2.0 0.0 1 ------- null}
- -t 0.26224 -s 2 -d 1 -p ack -e 40 -c 1 -i 4 -a 1 -x {2.0 0.0 1 ------- null}
h -t 0.26224 -s 2 -d 1 -p ack -e 40 -c 1 -i 4 -a 1 -x {2.0 0.0 -1 ------- null}
r -t 0.26328 -s 1 -d 2 -p tcp -e 1040 -c 1 -i 3 -a 1 -x {0.0 2.0 2 ------- null}
+ -t 0.26328 -s 2 -d 1 -p ack -e 40 -c 1 -i 5 -a 1 -x {2.0 0.0 2 ------- null}
- -t 0.26328 -s 2 -d 1 -p ack -e 40 -c 1 -i 5 -a 1 -x {2.0 0.0 2 ------- null}
h -t 0.26328 -s 2 -d 1 -p ack -e 40 -c 1 -i 5 -a 1 -x {2.0 0.0 -1 ------- null}
r -t 0.27228 -s 2 -d 1 -p ack -e 40 -c 1 -i 4 -a 1 -x {2.0 0.0 1 ------- null}
+ -t 0.27228 -s 1 -d 0 -p ack -e 40 -c 1 -i 4 -a 1 -x {2.0 0.0 1 ------- null}
- -t 0.27228 -s 1 -d 0 -p ack -e 40 -c 1 -i 4 -a 1 -x {2.0 0.0 1 ------- null}
h -t 0.27228 -s 1 -d 0 -p ack -e 40 -c 1 -i 4 -a 1 -x {2.0 0.0 -1 ------- null}
r -t 0.27332 -s 2 -d 1 -p ack -e 40 -c 1 -i 5 -a 1 -x {2.0 0.0 2 ------- null}
+ -t 0.27332 -s 1 -d 0 -p ack -e 40 -c 1 -i 5 -a 1 -x {2.0 0.0 2 ------- null}
- -t 0.27332 -s 1 -d 0 -p ack -e 40 -c 1 -i 5 -a 1 -x {2.0 0.0 2 ------- null}
h -t 0.27332 -s 1 -d 0 -p ack -e 40 -c 1 -i 5 -a 1 -x {2.0 0.0 -1 ------- null}
r -t 0.28232 -s 1 -d 0 -p ack -e 40 -c 1 -i 4 -a 1 -x {2.0 0.0 1 ------- null}
+ -t 0.28232 -s 0 -d 1 -p tcp -e 1040 -c 1 -i 6 -a 1 -x {0.0 2.0 3 ------- null}
- -t 0.28232 -s 0 -d 1 -p tcp -e 1040 -c 1 -i 6 -a 1 -x {0.0 2.0 3 ------- null}
h -t 0.28232 -s 0 -d 1 -p tcp -e 1040 -c 1 -i 6 -a 1 -x {0.0 2.0 -1 ------- null}
+ -t 0.28232 -s 0 -d 1 -p tcp -e 1040 -c 1 -i 7 -a 1 -x {0.0 2.0 4 ------- null}
- -t 0.28336 -s 0 -d 1 -p tcp -e 1040 -c 1 -i 7 -a 1 -x {0.0 2.0 4 ------- null}
h -t 0.28336 -s 0 -d 1 -p tcp -e 1040 -c 1 -i 7 -a 1 -x {0.0 2.0 -1 ------- null}
r -t 0.28336 -s 1 -d 0 -p ack -e 40 -c 1 -i 5 -a 1 -x {2.0 0.0 2 ------- null}
+ -t 0.28336 -s 0 -d 1 -p tcp -e 1040 -c 1 -i 8 -a 1 -x {0.0 2.0 5 ------- null}
+ -t 0.28336 -s 0 -d 1 -p tcp -e 1040 -c 1 -i 9 -a 1 -x {0.0 2.0 6 ------- null}
- -t 0.2844 -s 0 -d 1 -p tcp -e 1040 -c 1 -i 8 -a 1 -x {0.0 2.0 5 ------- null}
h -t 0.2844 -s 0 -d 1 -p tcp -e 1040 -c 1 -i 8 -a 1 -x {0.0 2.0 -1 ------- null}
- -t 0.28544 -s 0 -d 1 -p tcp -e 1040 -c 1 -i 9 -a 1 -x {0.0 2.0 6 ------- null}
h -t 0.28544 -s 0 -d 1 -p tcp -e 1040 -c 1 -i 9 -a 1 -x {0.0 2.0 -1 ------- null}
r -t 0.29336 -s 0 -d 1 -p tcp -e 1040 -c 1 -i 6 -a 1 -x {0.0 2.0 3 ------- null}
+ -t 0.29336 -s 1 -d 2 -p tcp -e 1040 -c 1 -i 6 -a 1 -x {0.0 2.0 3 ------- null}
- -t 0.29336 -s 1 -d 2 -p tcp -e 1040 -c 1 -i 6 -a 1 -x {0.0 2.0 3 ------- null}
h -t 0.29336 -s 1 -d 2 -p tcp -e 1040 -c 1 -i 6 -a 1 -x {0.0 2.0 -1 ------- null}
r -t 0.2944 -s 0 -d 1 -p tcp -e 1040 -c 1 -i 7 -a 1 -x {0.0 2.0 4 ------- null}
+ -t 0.2944 -s 1 -d 2 -p tcp -e 1040 -c 1 -i 7 -a 1 -x {0.0 2.0 4 ------- null}
- -t 0.2944 -s 1 -d 2 -p tcp -e 1040 -c 1 -i 7 -a 1 -x {0.0 2.0 4 ------- null}
h -t 0.2944 -s 1 -d 2 -p tcp -e 1040 -c 1 -i 7 -a 1 -x {0.0 2.0 -1 ------- null}
r -t 0.29544 -s 0 -d 1 -p tcp -e 1040 -c 1 -i 8 -a 1 -x {0.0 2.0 5 ------- null}
+ -t 0.29544 -s 1 -d 2 -p tcp -e 1040 -c 1 -i 8 -a 1 -x {0.0 2.0 5 ------- null}
- -t 0.29544 -s 1 -d 2 -p tcp -e 1040 -c 1 -i 8 -a 1 -x {0.0 2.0 5 ------- null}
h -t 0.29544 -s 1 -d 2 -p tcp -e 1040 -c 1 -i 8 -a 1 -x {0.0 2.0 -1 ------- null}
r -t 0.29648 -s 0 -d 1 -p tcp -e 1040 -c 1 -i 9 -a 1 -x {0.0 2.0 6 ------- null}
+ -t 0.29648 -s 1 -d 2 -p tcp -e 1040 -c 1 -i 9 -a 1 -x {0.0 2.0 6 ------- null}
- -t 0.29648 -s 1 -d 2 -p tcp -e 1040 -c 1 -i 9 -a 1 -x {0.0 2.0 6 ------- null}
h -t 0.29648 -s 1 -d 2 -p tcp -e 1040 -c 1 -i 9 -a 1 -x {0.0 2.0 -1 ------- null}
r -t 0.3044 -s 1 -d 2 -p tcp -e 1040 -c 1 -i 6 -a 1 -x {0.0 2.0 3 ------- null}
+ -t 0.3044 -s 2 -d 1 -p ack -e 40 -c 1 -i 10 -a 1 -x {2.0 0.0 3 ------- null}
- -t 0.3044 -s 2 -d 1 -p ack -e 40 -c 1 -i 10 -a 1 -x {2.0 0.0 3 ------- null}
h -t 0.3044 -s 2 -d 1 -p ack -e 40 -c 1 -i 10 -a 1 -x {2.0 0.0 -1 ------- null}
r -t 0.30544 -s 1 -d 2 -p tcp -e 1040 -c 1 -i 7 -a 1 -x {0.0 2.0 4 ------- null}
+ -t 0.30544 -s 2 -d 1 -p ack -e 40 -c 1 -i 11 -a 1 -x {2.0 0.0 4 ------- null}
- -t 0.30544 -s 2 -d 1 -p ack -e 40 -c 1 -i 11 -a 1 -x {2.0 0.0 4 ------- null}
h -t 0.30544 -s 2 -d 1 -p ack -e 40 -c 1 -i 11 -a 1 -x {2.0 0.0 -1 ------- null}
r -t 0.30648 -s 1 -d 2 -p tcp -e 1040 -c 1 -i 8 -a 1 -x {0.0 2.0 5 ------- null}
+ -t 0.30648 -s 2 -d 1 -p ack -e 40 -c 1 -i 12 -a 1 -x {2.0 0.0 5 ------- null}
- -t 0.30648 -s 2 -d 1 -p ack -e 40 -c 1 -i 12 -a 1 -x {2.0 0.0 5 ------- null}
h -t 0.30648 -s 2 -d 1 -p ack -e 40 -c 1 -i 12 -a 1 -x {2.0 0.0 -1 ------- null}
r -t 0.30752 -s 1 -d 2 -p tcp -e 1040 -c 1 -i 9 -a 1 -x {0.0 2.0 6 ------- null}
+ -t 0.30752 -s 2 -d 1 -p ack -e 40 -c 1 -i 13 -a 1 -x {2.0 0.0 6 ------- null}
- -t 0.30752 -s 2 -d 1 -p ack -e 40 -c 1 -i 13 -a 1 -x {2.0 0.0 6 ------- null}
h -t 0.30752 -s 2 -d 1 -p ack -e 40 -c 1 -i 13 -a 1 -x {2.0 0.0 -1 ------- null}
r -t 0.31444 -s 2 -d 1 -p ack -e 40 -c 1 -i 10 -a 1 -x {2.0 0.0 3 ------- null}
+ -t 0.31444 -s 1 -d 0 -p ack -e 40 -c 1 -i 10 -a 1 -x {2.0 0.0 3 ------- null}
- -t 0.31444 -s 1 -d 0 -p ack -e 40 -c 1 -i 10 -a 1 -x {2.0 0.0 3 ------- null}
h -t 0.31444 -s 1 -d 0 -p ack -e 40 -c 1 -i 10 -a 1 -x {2.0 0.0 -1 ------- null}
r -t 0.31548 -s 2 -d 1 -p ack -e 40 -c 1 -i 11 -a 1 -x {2.0 0.0 4 ------- null}
+ -t 0.31548 -s 1 -d 0 -p ack -e 40 -c 1 -i 11 -a 1 -x {2.0 0.0 4 ------- null}
- -t 0.31548 -s 1 -d 0 -p ack -e 40 -c 1 -i 11 -a 1 -x {2.0 0.0 4 ------- null}
h -t 0.31548 -s 1 -d 0 -p ack -e 40 -c 1 -i 11 -a 1 -x {2.0 0.0 -1 ------- null}
r -t 0.31652 -s 2 -d 1 -p ack -e 40 -c 1 -i 12 -a 1 -x {2.0 0.0 5 ------- null}
+ -t 0.31652 -s 1 -d 0 -p ack -e 40 -c 1 -i 12 -a 1 -x {2.0 0.0 5 ------- null}
- -t 0.31652 -s 1 -d 0 -p ack -e 40 -c 1 -i 12 -a 1 -x {2.0 0.0 5 ------- null}
h -t 0.31652 -s 1 -d 0 -p ack -e 40 -c 1 -i 12 -a 1 -x {2.0 0.0 -1 ------- null}
r -t 0.31756 -s 2 -d 1 -p ack -e 40 -c 1 -i 13 -a 1 -x {2.0 0.0 6 ------- null}
+ -t 0.31756 -s 1 -d 0 -p ack -e 40 -c 1 -i 13 -a 1 -x {2.0 0.0 6 ------- null}
- -t 0.31756 -s 1 -d 0 -p ack -e 40 -c 1 -i 13 -a 1 -x {2.0 0.0 6 ------- null}
h -t 0.31756 -s 1 -d 0 -p ack -e 40 -c 1 -i 13 -a 1 -x {2.0 0.0 -1 ------- null}
r -t 0.32448 -s 1 -d 0 -p ack -e 40 -c 1 -i 10 -a 1 -x {2.0 0.0 3 ------- null}
+ -t 0.32448 -s 0 -d 1 -p tcp -e 1040 -c 1 -i 14 -a 1 -x {0.0 2.0 7 ------- null}
- -t 0.32448 -s 0 -d 1 -p tcp -e 1040 -c 1 -i 14 -a 1 -x {0.0 2.0 7 ------- null}
h -t 0.32448 -s 0 -d 1 -p tcp -e 1040 -c 1 -i 14 -a 1 -x {0.0 2.0 -1 ------- null}
+ -t 0.32448 -s 0 -d 1 -p tcp -e 1040 -c 1 -i 15 -a 1 -x {0.0 2.0 8 ------- null}
r -t 0.32552 -s 1 -d 0 -p ack -e 40 -c 1 -i 11 -a 1 -x {2.0 0.0 4 ------- null}
+ -t 0.32552 -s 0 -d 1 -p tcp -e 1040 -c 1 -i 16 -a 1 -x {0.0 2.0 9 ------- null}
+ -t 0.32552 -s 0 -d 1 -p tcp -e 1040 -c 1 -i 17 -a 1 -x {0.0 2.0 10 ------- null}
- -t 0.32552 -s 0 -d 1 -p tcp -e 1040 -c 1 -i 15 -a 1 -x {0.0 2.0 8 ------- null}
h -t 0.32552 -s 0 -d 1 -p tcp -e 1040 -c 1 -i 15 -a 1 -x {0.0 2.0 -1 ------- null}
r -t 0.32656 -s 1 -d 0 -p ack -e 40 -c 1 -i 12 -a 1 -x {2.0 0.0 5 ------- null}
+ -t 0.32656 -s 0 -d 1 -p tcp -e 1040 -c 1 -i 18 -a 1 -x {0.0 2.0 11 ------- null}
+ -t 0.32656 -s 0 -d 1 -p tcp -e 1040 -c 1 -i 19 -a 1 -x {0.0 2.0 12 ------- null}
- -t 0.32656 -s 0 -d 1 -p tcp -e 1040 -c 1 -i 16 -a 1 -x {0.0 2.0 9 ------- null}
h -t 0.32656 -s 0 -d 1 -p tcp -e 1040 -c 1 -i 16 -a 1 -x {0.0 2.0 -1 ------- null}
r -t 0.3276 -s 1 -d 0 -p ack -e 40 -c 1 -i 13 -a 1 -x {2.0 0.0 6 ------- null}
+ -t 0.3276 -s 0 -d 1 -p tcp -e 1040 -c 1 -i 20 -a 1 -x {0.0 2.0 13 ------- null}
+ -t 0.3276 -s 0 -d 1 -p tcp -e 1040 -c 1 -i 21 -a 1 -x {0.0 2.0 14 ------- null}
- -t 0.3276 -s 0 -d 1 -p tcp -e 1040 -c 1 -i 17 -a 1 -x {0.0 2.0 10 ------- null}
h -t 0.3276 -s 0 -d 1 -p tcp -e 1040 -c 1 -i 17 -a 1 -x {0.0 2.0 -1 ------- null}
- -t 0.32864 -s 0 -d 1 -p tcp -e 1040 -c 1 -i 18 -a 1 -x {0.0 2.0 11 ------- null}
h -t 0.32864 -s 0 -d 1 -p tcp -e 1040 -c 1 -i 18 -a 1 -x {0.0 2.0 -1 ------- null}
- -t 0.32968 -s 0 -d 1 -p tcp -e 1040 -c 1 -i 19 -a 1 -x {0.0 2.0 12 ------- null}
h -t 0.32968 -s 0 -d 1 -p tcp -e 1040 -c 1 -i 19 -a 1 -x {0.0 2.0 -1 ------- null}
- -t 0.33072 -s 0 -d 1 -p tcp -e 1040 -c 1 -i 20 -a 1 -x {0.0 2.0 13 ------- null}
h -t 0.33072 -s 0 -d 1 -p tcp -e 1040 -c 1 -i 20 -a 1 -x {0.0 2.0 -1 ------- null}
- -t 0.33176 -s 0 -d 1 -p tcp -e 1040 -c 1 -i 21 -a 1 -x {0.0 2.0 14 ------- null}
h -t 0.33176 -s 0 -d 1 -p tcp -e 1040 -c 1 -i 21 -a 1 -x {0.0 2.0 -1 ------- null}
r -t 0.33552 -s 0 -d 1 -p tcp -e 1040 -c 1 -i 14 -a 1 -x {0.0 2.0 7 ------- null}
+ -t 0.33552 -s 1 -d 2 -p tcp -e 1040 -c 1 -i 14 -a 1 -x {0.0 2.0 7 ------- null}
- -t 0.33552 -s 1 -d 2 -p tcp -e 1040 -c 1 -i 14 -a 1 -x {0.0 2.0 7 ------- null}
h -t 0.33552 -s 1 -d 2 -p tcp -e 1040 -c 1 -i 14 -a 1 -x {0.0 2.0 -1 ------- null}
r -t 0.33656 -s 0 -d 1 -p tcp -e 1040 -c 1 -i 15 -a 1 -x {0.0 2.0 8 ------- null}
+ -t 0.33656 -s 1 -d 2 -p tcp -e 1040 -c 1 -i 15 -a 1 -x {0.0 2.0 8 ------- null}
- -t 0.33656 -s 1 -d 2 -p tcp -e 1040 -c 1 -i 15 -a 1 -x {0.0 2.0 8 ------- null}
h -t 0.33656 -s 1 -d 2 -p tcp -e 1040 -c 1 -i 15 -a 1 -x {0.0 2.0 -1 ------- null}
r -t 0.3376 -s 0 -d 1 -p tcp -e 1040 -c 1 -i 16 -a 1 -x {0.0 2.0 9 ------- null}
+ -t 0.3376 -s 1 -d 2 -p tcp -e 1040 -c 1 -i 16 -a 1 -x {0.0 2.0 9 ------- null}
- -t 0.3376 -s 1 -d 2 -p tcp -e 1040 -c 1 -i 16 -a 1 -x {0.0 2.0 9 ------- null}
h -t 0.3376 -s 1 -d 2 -p tcp -e 1040 -c 1 -i 16 -a 1 -x {0.0 2.0 -1 ------- null}
r -t 0.33864 -s 0 -d 1 -p tcp -e 1040 -c 1 -i 17 -a 1 -x {0.0 2.0 10 ------- null}
+ -t 0.33864 -s 1 -d 2 -p tcp -e 1040 -c 1 -i 17 -a 1 -x {0.0 2.0 10 ------- null}
- -t 0.33864 -s 1 -d 2 -p tcp -e 1040 -c 1 -i 17 -a 1 -x {0.0 2.0 10 ------- null}
h -t 0.33864 -s 1 -d 2 -p tcp -e 1040 -c 1 -i 17 -a 1 -x {0.0 2.0 -1 ------- null}
r -t 0.33968 -s 0 -d 1 -p tcp -e 1040 -c 1 -i 18 -a 1 -x {0.0 2.0 11 ------- null}
+ -t 0.33968 -s 1 -d 2 -p tcp -e 1040 -c 1 -i 18 -a 1 -x {0.0 2.0 11 ------- null}
- -t 0.33968 -s 1 -d 2 -p tcp -e 1040 -c 1 -i 18 -a 1 -x {0.0 2.0 11 ------- null}
h -t 0.33968 -s 1 -d 2 -p tcp -e 1040 -c 1 -i 18 -a 1 -x {0.0 2.0 -1 ------- null}
r -t 0.34072 -s 0 -d 1 -p tcp -e 1040 -c 1 -i 19 -a 1 -x {0.0 2.0 12 ------- null}
+ -t 0.34072 -s 1 -d 2 -p tcp -e 1040 -c 1 -i 19 -a 1 -x {0.0 2.0 12 ------- null}
- -t 0.34072 -s 1 -d 2 -p tcp -e 1040 -c 1 -i 19 -a 1 -x {0.0 2.0 12 ------- null}
h -t 0.34072 -s 1 -d 2 -p tcp -e 1040 -c 1 -i 19 -a 1 -x {0.0 2.0 -1 ------- null}
r -t 0.34176 -s 0 -d 1 -p tcp -e 1040 -c 1 -i 20 -a 1 -x {0.0 2.0 13 ------- null}
+ -t 0.34176 -s 1 -d 2 -p tcp -e 1040 -c 1 -i 20 -a 1 -x {0.0 2.0 13 ------- null}
- -t 0.34176 -s 1 -d 2 -p tcp -e 1040 -c 1 -i 20 -a 1 -x {0.0 2.0 13 ------- null}
h -t 0.34176 -s 1 -d 2 -p tcp -e 1040 -c 1 -i 20 -a 1 -x {0.0 2.0 -1 ------- null}
r -t 0.3428 -s 0 -d 1 -p tcp -e 1040 -c 1 -i 21 -a 1 -x {0.0 2.0 14 ------- null}
+ -t 0.3428 -s 1 -d 2 -p tcp -e 1040 -c 1 -i 21 -a 1 -x {0.0 2.0 14 ------- null}
- -t 0.3428 -s 1 -d 2 -p tcp -e 1040 -c 1 -i 21 -a 1 -x {0.0 2.0 14 ------- null}
h -t 0.3428 -s 1 -d 2 -p tcp -e 1040 -c 1 -i 21 -a 1 -x {0.0 2.0 -1 ------- null}
r -t 0.34656 -s 1 -d 2 -p tcp -e 1040 -c 1 -i 14 -a 1 -x {0.0 2.0 7 ------- null}
+ -t 0.34656 -s 2 -d 1 -p ack -e 40 -c 1 -i 22 -a 1 -x {2.0 0.0 7 ------- null}
- -t 0.34656 -s 2 -d 1 -p ack -e 40 -c 1 -i 22 -a 1 -x {2.0 0.0 7 ------- null}
h -t 0.34656 -s 2 -d 1 -p ack -e 40 -c 1 -i 22 -a 1 -x {2.0 0.0 -1 ------- null}
r -t 0.3476 -s 1 -d 2 -p tcp -e 1040 -c 1 -i 15 -a 1 -x {0.0 2.0 8 ------- null}
+ -t 0.3476 -s 2 -d 1 -p ack -e 40 -c 1 -i 23 -a 1 -x {2.0 0.0 8 ------- null}
- -t 0.3476 -s 2 -d 1 -p ack -e 40 -c 1 -i 23 -a 1 -x {2.0 0.0 8 ------- null}
h -t 0.3476 -s 2 -d 1 -p ack -e 40 -c 1 -i 23 -a 1 -x {2.0 0.0 -1 ------- null}
r -t 0.34864 -s 1 -d 2 -p tcp -e 1040 -c 1 -i 16 -a 1 -x {0.0 2.0 9 ------- null}
+ -t 0.34864 -s 2 -d 1 -p ack -e 40 -c 1 -i 24 -a 1 -x {2.0 0.0 9 ------- null}
- -t 0.34864 -s 2 -d 1 -p ack -e 40 -c 1 -i 24 -a 1 -x {2.0 0.0 9 ------- null}
h -t 0.34864 -s 2 -d 1 -p ack -e 40 -c 1 -i 24 -a 1 -x {2.0 0.0 -1 ------- null}
r -t 0.34968 -s 1 -d 2 -p tcp -e 1040 -c 1 -i 17 -a 1 -x {0.0 2.0 10 ------- null}
+ -t 0.34968 -s 2 -d 1 -p ack -e 40 -c 1 -i 25 -a 1 -x {2.0 0.0 10 ------- null}
- -t 0.34968 -s 2 -d 1 -p ack -e 40 -c 1 -i 25 -a 1 -x {2.0 0.0 10 ------- null}
h -t 0.34968 -s 2 -d 1 -p ack -e 40 -c 1 -i 25 -a 1 -x {2.0 0.0 -1 ------- null}
r -t 0.35072 -s 1 -d 2 -p tcp -e 1040 -c 1 -i 18 -a 1 -x {0.0 2.0 11 ------- null}
+ -t 0.35072 -s 2 -d 1 -p ack -e 40 -c 1 -i 26 -a 1 -x {2.0 0.0 11 ------- null}
- -t 0.35072 -s 2 -d 1 -p ack -e 40 -c 1 -i 26 -a 1 -x {2.0 0.0 11 ------- null}
h -t 0.35072 -s 2 -d 1 -p ack -e 40 -c 1 -i 26 -a 1 -x {2.0 0.0 -1 ------- null}
r -t 0.35176 -s 1 -d 2 -p tcp -e 1040 -c 1 -i 19 -a 1 -x {0.0 2.0 12 ------- null}
+ -t 0.35176 -s 2 -d 1 -p ack -e 40 -c 1 -i 27 -a 1 -x {2.0 0.0 12 ------- null}
- -t 0.35176 -s 2 -d 1 -p ack -e 40 -c 1 -i 27 -a 1 -x {2.0 0.0 12 ------- null}
h -t 0.35176 -s 2 -d 1 -p ack -e 40 -c 1 -i 27 -a 1 -x {2.0 0.0 -1 ------- null}
r -t 0.3528 -s 1 -d 2 -p tcp -e 1040 -c 1 -i 20 -a 1 -x {0.0 2.0 13 ------- null}
+ -t 0.3528 -s 2 -d 1 -p ack -e 40 -c 1 -i 28 -a 1 -x {2.0 0.0 13 ------- null}
- -t 0.3528 -s 2 -d 1 -p ack -e 40 -c 1 -i 28 -a 1 -x {2.0 0.0 13 ------- null}
h -t 0.3528 -s 2 -d 1 -p ack -e 40 -c 1 -i 28 -a 1 -x {2.0 0.0 -1 ------- null}
r -t 0.35384 -s 1 -d 2 -p tcp -e 1040 -c 1 -i 21 -a 1 -x {0.0 2.0 14 ------- null}
+ -t 0.35384 -s 2 -d 1 -p ack -e 40 -c 1 -i 29 -a 1 -x {2.0 0.0 14 ------- null}
- -t 0.35384 -s 2 -d 1 -p ack -e 40 -c 1 -i 29 -a 1 -x {2.0 0.0 14 ------- null}
h -t 0.35384 -s 2 -d 1 -p ack -e 40 -c 1 -i 29 -a 1 -x {2.0 0.0 -1 ------- null}
r -t 0.3566 -s 2 -d 1 -p ack -e 40 -c 1 -i 22 -a 1 -x {2.0 0.0 7 ------- null}
+ -t 0.3566 -s 1 -d 0 -p ack -e 40 -c 1 -i 22 -a 1 -x {2.0 0.0 7 ------- null}
- -t 0.3566 -s 1 -d 0 -p ack -e 40 -c 1 -i 22 -a 1 -x {2.0 0.0 7 ------- null}
h -t 0.3566 -s 1 -d 0 -p ack -e 40 -c 1 -i 22 -a 1 -x {2.0 0.0 -1 ------- null}
r -t 0.35764 -s 2 -d 1 -p ack -e 40 -c 1 -i 23 -a 1 -x {2.0 0.0 8 ------- null}
+ -t 0.35764 -s 1 -d 0 -p ack -e 40 -c 1 -i 23 -a 1 -x {2.0 0.0 8 ------- null}
- -t 0.35764 -s 1 -d 0 -p ack -e 40 -c 1 -i 23 -a 1 -x {2.0 0.0 8 ------- null}
h -t 0.35764 -s 1 -d 0 -p ack -e 40 -c 1 -i 23 -a 1 -x {2.0 0.0 -1 ------- null}
r -t 0.35868 -s 2 -d 1 -p ack -e 40 -c 1 -i 24 -a 1 -x {2.0 0.0 9 ------- null}
+ -t 0.35868 -s 1 -d 0 -p ack -e 40 -c 1 -i 24 -a 1 -x {2.0 0.0 9 ------- null}
- -t 0.35868 -s 1 -d 0 -p ack -e 40 -c 1 -i 24 -a 1 -x {2.0 0.0 9 ------- null}
h -t 0.35868 -s 1 -d 0 -p ack -e 40 -c 1 -i 24 -a 1 -x {2.0 0.0 -1 ------- null}
r -t 0.35972 -s 2 -d 1 -p ack -e 40 -c 1 -i 25 -a 1 -x {2.0 0.0 10 ------- null}
+ -t 0.35972 -s 1 -d 0 -p ack -e 40 -c 1 -i 25 -a 1 -x {2.0 0.0 10 ------- null}
- -t 0.35972 -s 1 -d 0 -p ack -e 40 -c 1 -i 25 -a 1 -x {2.0 0.0 10 ------- null}
h -t 0.35972 -s 1 -d 0 -p ack -e 40 -c 1 -i 25 -a 1 -x {2.0 0.0 -1 ------- null}
r -t 0.36076 -s 2 -d 1 -p ack -e 40 -c 1 -i 26 -a 1 -x {2.0 0.0 11 ------- null}
+ -t 0.36076 -s 1 -d 0 -p ack -e 40 -c 1 -i 26 -a 1 -x {2.0 0.0 11 ------- null}
- -t 0.36076 -s 1 -d 0 -p ack -e 40 -c 1 -i 26 -a 1 -x {2.0 0.0 11 ------- null}
h -t 0.36076 -s 1 -d 0 -p ack -e 40 -c 1 -i 26 -a 1 -x {2.0 0.0 -1 ------- null}
r -t 0.3618 -s 2 -d 1 -p ack -e 40 -c 1 -i 27 -a 1 -x {2.0 0.0 12 ------- null}
+ -t 0.3618 -s 1 -d 0 -p ack -e 40 -c 1 -i 27 -a 1 -x {2.0 0.0 12 ------- null}
- -t 0.3618 -s 1 -d 0 -p ack -e 40 -c 1 -i 27 -a 1 -x {2.0 0.0 12 ------- null}
h -t 0.3618 -s 1 -d 0 -p ack -e 40 -c 1 -i 27 -a 1 -x {2.0 0.0 -1 ------- null}
r -t 0.36284 -s 2 -d 1 -p ack -e 40 -c 1 -i 28 -a 1 -x {2.0 0.0 13 ------- null}
+ -t 0.36284 -s 1 -d 0 -p ack -e 40 -c 1 -i 28 -a 1 -x {2.0 0.0 13 ------- null}
- -t 0.36284 -s 1 -d 0 -p ack -e 40 -c 1 -i 28 -a 1 -x {2.0 0.0 13 ------- null}
h -t 0.36284 -s 1 -d 0 -p ack -e 40 -c 1 -i 28 -a 1 -x {2.0 0.0 -1 ------- null}
r -t 0.36388 -s 2 -d 1 -p ack -e 40 -c 1 -i 29 -a 1 -x {2.0 0.0 14 ------- null}
+ -t 0.36388 -s 1 -d 0 -p ack -e 40 -c 1 -i 29 -a 1 -x {2.0 0.0 14 ------- null}
- -t 0.36388 -s 1 -d 0 -p ack -e 40 -c 1 -i 29 -a 1 -x {2.0 0.0 14 ------- null}
h -t 0.36388 -s 1 -d 0 -p ack -e 40 -c 1 -i 29 -a 1 -x {2.0 0.0 -1 ------- null}
r -t 0.36664 -s 1 -d 0 -p ack -e 40 -c 1 -i 22 -a 1 -x {2.0 0.0 7 ------- null}
+ -t 0.36664 -s 0 -d 1 -p tcp -e 1040 -c 1 -i 30 -a 1 -x {0.0 2.0 15 ------- null}
- -t 0.36664 -s 0 -d 1 -p tcp -e 1040 -c 1 -i 30 -a 1 -x {0.0 2.0 15 ------- null}
h -t 0.36664 -s 0 -d 1 -p tcp -e 1040 -c 1 -i 30 -a 1 -x {0.0 2.0 -1 ------- null}
+ -t 0.36664 -s 0 -d 1 -p tcp -e 1040 -c 1 -i 31 -a 1 -x {0.0 2.0 16 ------- null}
r -t 0.36768 -s 1 -d 0 -p ack -e 40 -c 1 -i 23 -a 1 -x {2.0 0.0 8 ------- null}
+ -t 0.36768 -s 0 -d 1 -p tcp -e 1040 -c 1 -i 32 -a 1 -x {0.0 2.0 17 ------- null}
+ -t 0.36768 -s 0 -d 1 -p tcp -e 1040 -c 1 -i 33 -a 1 -x {0.0 2.0 18 ------- null}
- -t 0.36768 -s 0 -d 1 -p tcp -e 1040 -c 1 -i 31 -a 1 -x {0.0 2.0 16 ------- null}
h -t 0.36768 -s 0 -d 1 -p tcp -e 1040 -c 1 -i 31 -a 1 -x {0.0 2.0 -1 ------- null}
r -t 0.36872 -s 1 -d 0 -p ack -e 40 -c 1 -i 24 -a 1 -x {2.0 0.0 9 ------- null}
+ -t 0.36872 -s 0 -d 1 -p tcp -e 1040 -c 1 -i 34 -a 1 -x {0.0 2.0 19 ------- null}
+ -t 0.36872 -s 0 -d 1 -p tcp -e 1040 -c 1 -i 35 -a 1 -x {0.0 2.0 20 ------- null}
- -t 0.36872 -s 0 -d 1 -p tcp -e 1040 -c 1 -i 32 -a 1 -x {0.0 2.0 17 ------- null}
h -t 0.36872 -s 0 -d 1 -p tcp -e 1040 -c 1 -i 32 -a 1 -x {0.0 2.0 -1 ------- null}
r -t 0.36976 -s 1 -d 0 -p ack -e 40 -c 1 -i 25 -a 1 -x {2.0 0.0 10 ------- null}
+ -t 0.36976 -s 0 -d 1 -p tcp -e 1040 -c 1 -i 36 -a 1 -x {0.0 2.0 21 ------- null}
+ -t 0.36976 -s 0 -d 1 -p tcp -e 1040 -c 1 -i 37 -a 1 -x {0.0 2.0 22 ------- null}
- -t 0.36976 -s 0 -d 1 -p tcp -e 1040 -c 1 -i 33 -a 1 -x {0.0 2.0 18 ------- null}
h -t 0.36976 -s 0 -d 1 -p tcp -e 1040 -c 1 -i 33 -a 1 -x {0.0 2.0 -1 ------- null}
r -t 0.3708 -s 1 -d 0 -p ack -e 40 -c 1 -i 26 -a 1 -x {2.0 0.0 11 ------- null}
+ -t 0.3708 -s 0 -d 1 -p tcp -e 1040 -c 1 -i 38 -a 1 -x {0.0 2.0 23 ------- null}
+ -t 0.3708 -s 0 -d 1 -p tcp -e 1040 -c 1 -i 39 -a 1 -x {0.0 2.0 24 ------- null}
- -t 0.3708 -s 0 -d 1 -p tcp -e 1040 -c 1 -i 34 -a 1 -x {0.0 2.0 19 ------- null}
h -t 0.3708 -s 0 -d 1 -p tcp -e 1040 -c 1 -i 34 -a 1 -x {0.0 2.0 -1 ------- null}
r -t 0.37184 -s 1 -d 0 -p ack -e 40 -c 1 -i 27 -a 1 -x {2.0 0.0 12 ------- null}
+ -t 0.37184 -s 0 -d 1 -p tcp -e 1040 -c 1 -i 40 -a 1 -x {0.0 2.0 25 ------- null}
+ -t 0.37184 -s 0 -d 1 -p tcp -e 1040 -c 1 -i 41 -a 1 -x {0.0 2.0 26 ------- null}
- -t 0.37184 -s 0 -d 1 -p tcp -e 1040 -c 1 -i 35 -a 1 -x {0.0 2.0 20 ------- null}
h -t 0.37184 -s 0 -d 1 -p tcp -e 1040 -c 1 -i 35 -a 1 -x {0.0 2.0 -1 ------- null}
r -t 0.37288 -s 1 -d 0 -p ack -e 40 -c 1 -i 28 -a 1 -x {2.0 0.0 13 ------- null}
+ -t 0.37288 -s 0 -d 1 -p tcp -e 1040 -c 1 -i 42 -a 1 -x {0.0 2.0 27 ------- null}
+ -t 0.37288 -s 0 -d 1 -p tcp -e 1040 -c 1 -i 43 -a 1 -x {0.0 2.0 28 ------- null}
- -t 0.37288 -s 0 -d 1 -p tcp -e 1040 -c 1 -i 36 -a 1 -x {0.0 2.0 21 ------- null}
h -t 0.37288 -s 0 -d 1 -p tcp -e 1040 -c 1 -i 36 -a 1 -x {0.0 2.0 -1 ------- null}
r -t 0.37392 -s 1 -d 0 -p ack -e 40 -c 1 -i 29 -a 1 -x {2.0 0.0 14 ------- null}
+ -t 0.37392 -s 0 -d 1 -p tcp -e 1040 -c 1 -i 44 -a 1 -x {0.0 2.0 29 ------- null}
+ -t 0.37392 -s 0 -d 1 -p tcp -e 1040 -c 1 -i 45 -a 1 -x {0.0 2.0 30 ------- null}
- -t 0.37392 -s 0 -d 1 -p tcp -e 1040 -c 1 -i 37 -a 1 -x {0.0 2.0 22 ------- null}
h -t 0.37392 -s 0 -d 1 -p tcp -e 1040 -c 1 -i 37 -a 1 -x {0.0 2.0 -1 ------- null}
- -t 0.37496 -s 0 -d 1 -p tcp -e 1040 -c 1 -i 38 -a 1 -x {0.0 2.0 23 ------- null}
h -t 0.37496 -s 0 -d 1 -p tcp -e 1040 -c 1 -i 38 -a 1 -x {0.0 2.0 -1 ------- null}
- -t 0.376 -s 0 -d 1 -p tcp -e 1040 -c 1 -i 39 -a 1 -x {0.0 2.0 24 ------- null}
h -t 0.376 -s 0 -d 1 -p tcp -e 1040 -c 1 -i 39 -a 1 -x {0.0 2.0 -1 ------- null}
- -t 0.37704 -s 0 -d 1 -p tcp -e 1040 -c 1 -i 40 -a 1 -x {0.0 2.0 25 ------- null}
h -t 0.37704 -s 0 -d 1 -p tcp -e 1040 -c 1 -i 40 -a 1 -x {0.0 2.0 -1 ------- null}
r -t 0.37768 -s 0 -d 1 -p tcp -e 1040 -c 1 -i 30 -a 1 -x {0.0 2.0 15 ------- null}
+ -t 0.37768 -s 1 -d 2 -p tcp -e 1040 -c 1 -i 30 -a 1 -x {0.0 2.0 15 ------- null}
- -t 0.37768 -s 1 -d 2 -p tcp -e 1040 -c 1 -i 30 -a 1 -x {0.0 2.0 15 ------- null}
h -t 0.37768 -s 1 -d 2 -p tcp -e 1040 -c 1 -i 30 -a 1 -x {0.0 2.0 -1 ------- null}
- -t 0.37808 -s 0 -d 1 -p tcp -e 1040 -c 1 -i 41 -a 1 -x {0.0 2.0 26 ------- null}
h -t 0.37808 -s 0 -d 1 -p tcp -e 1040 -c 1 -i 41 -a 1 -x {0.0 2.0 -1 ------- null}
r -t 0.37872 -s 0 -d 1 -p tcp -e 1040 -c 1 -i 31 -a 1 -x {0.0 2.0 16 ------- null}
+ -t 0.37872 -s 1 -d 2 -p tcp -e 1040 -c 1 -i 31 -a 1 -x {0.0 2.0 16 ------- null}
- -t 0.37872 -s 1 -d 2 -p tcp -e 1040 -c 1 -i 31 -a 1 -x {0.0 2.0 16 ------- null}
h -t 0.37872 -s 1 -d 2 -p tcp -e 1040 -c 1 -i 31 -a 1 -x {0.0 2.0 -1 ------- null}
- -t 0.37912 -s 0 -d 1 -p tcp -e 1040 -c 1 -i 42 -a 1 -x {0.0 2.0 27 ------- null}
h -t 0.37912 -s 0 -d 1 -p tcp -e 1040 -c 1 -i 42 -a 1 -x {0.0 2.0 -1 ------- null}
r -t 0.37976 -s 0 -d 1 -p tcp -e 1040 -c 1 -i 32 -a 1 -x {0.0 2.0 17 ------- null}
+ -t 0.37976 -s 1 -d 2 -p tcp -e 1040 -c 1 -i 32 -a 1 -x {0.0 2.0 17 ------- null}
- -t 0.37976 -s 1 -d 2 -p tcp -e 1040 -c 1 -i 32 -a 1 -x {0.0 2.0 17 ------- null}
h -t 0.37976 -s 1 -d 2 -p tcp -e 1040 -c 1 -i 32 -a 1 -x {0.0 2.0 -1 ------- null}
- -t 0.38016 -s 0 -d 1 -p tcp -e 1040 -c 1 -i 43 -a 1 -x {0.0 2.0 28 ------- null}
h -t 0.38016 -s 0 -d 1 -p tcp -e 1040 -c 1 -i 43 -a 1 -x {0.0 2.0 -1 ------- null}
r -t 0.3808 -s 0 -d 1 -p tcp -e 1040 -c 1 -i 33 -a 1 -x {0.0 2.0 18 ------- null}
+ -t 0.3808 -s 1 -d 2 -p tcp -e 1040 -c 1 -i 33 -a 1 -x {0.0 2.0 18 ------- null}
- -t 0.3808 -s 1 -d 2 -p tcp -e 1040 -c 1 -i 33 -a 1 -x {0.0 2.0 18 ------- null}
h -t 0.3808 -s 1 -d 2 -p tcp -e 1040 -c 1 -i 33 -a 1 -x {0.0 2.0 -1 ------- null}
- -t 0.3812 -s 0 -d 1 -p tcp -e 1040 -c 1 -i 44 -a 1 -x {0.0 2.0 29 ------- null}
h -t 0.3812 -s 0 -d 1 -p tcp -e 1040 -c 1 -i 44 -a 1 -x {0.0 2.0 -1 ------- null}
r -t 0.38184 -s 0 -d 1 -p tcp -e 1040 -c 1 -i 34 -a 1 -x {0.0 2.0 19 ------- null}
+ -t 0.38184 -s 1 -d 2 -p tcp -e 1040 -c 1 -i 34 -a 1 -x {0.0 2.0 19 ------- null}
- -t 0.38184 -s 1 -d 2 -p tcp -e 1040 -c 1 -i 34 -a 1 -x {0.0 2.0 19 ------- null}
h -t 0.38184 -s 1 -d 2 -p tcp -e 1040 -c 1 -i 34 -a 1 -x {0.0 2.0 -1 ------- null}
- -t 0.38224 -s 0 -d 1 -p tcp -e 1040 -c 1 -i 45 -a 1 -x {0.0 2.0 30 ------- null}
h -t 0.38224 -s 0 -d 1 -p tcp -e 1040 -c 1 -i 45 -a 1 -x {0.0 2.0 -1 ------- null}
r -t 0.38288 -s 0 -d 1 -p tcp -e 1040 -c 1 -i 35 -a 1 -x {0.0 2.0 20 ------- null}
+ -t 0.38288 -s 1 -d 2 -p tcp -e 1040 -c 1 -i 35 -a 1 -x {0.0 2.0 20 ------- null}
- -t 0.38288 -s 1 -d 2 -p tcp -e 1040 -c 1 -i 35 -a 1 -x {0.0 2.0 20 ------- null}
h -t 0.38288 -s 1 -d 2 -p tcp -e 1040 -c 1 -i 35 -a 1 -x {0.0 2.0 -1 ------- null}
r -t 0.38392 -s 0 -d 1 -p tcp -e 1040 -c 1 -i 36 -a 1 -x {0.0 2.0 21 ------- null}
+ -t 0.38392 -s 1 -d 2 -p tcp -e 1040 -c 1 -i 36 -a 1 -x {0.0 2.0 21 ------- null}
- -t 0.38392 -s 1 -d 2 -p tcp -e 1040 -c 1 -i 36 -a 1 -x {0.0 2.0 21 ------- null}
h -t 0.38392 -s 1 -d 2 -p tcp -e 1040 -c 1 -i 36 -a 1 -x {0.0 2.0 -1 ------- null}
r -t 0.38496 -s 0 -d 1 -p tcp -e 1040 -c 1 -i 37 -a 1 -x {0.0 2.0 22 ------- null}
+ -t 0.38496 -s 1 -d 2 -p tcp -e 1040 -c 1 -i 37 -a 1 -x {0.0 2.0 22 ------- null}
- -t 0.38496 -s 1 -d 2 -p tcp -e 1040 -c 1 -i 37 -a 1 -x {0.0 2.0 22 ------- null}
h -t 0.38496 -s 1 -d 2 -p tcp -e 1040 -c 1 -i 37 -a 1 -x {0.0 2.0 -1 ------- null}
r -t 0.386 -s 0 -d 1 -p tcp -e 1040 -c 1 -i 38 -a 1 -x {0.0 2.0 23 ------- null}
+ -t 0.386 -s 1 -d 2 -p tcp -e 1040 -c 1 -i 38 -a 1 -x {0.0 2.0 23 ------- null}
- -t 0.386 -s 1 -d 2 -p tcp -e 1040 -c 1 -i 38 -a 1 -x {0.0 2.0 23 ------- null}
h -t 0.386 -s 1 -d 2 -p tcp -e 1040 -c 1 -i 38 -a 1 -x {0.0 2.0 -1 ------- null}
r -t 0.38704 -s 0 -d 1 -p tcp -e 1040 -c 1 -i 39 -a 1 -x {0.0 2.0 24 ------- null}
+ -t 0.38704 -s 1 -d 2 -p tcp -e 1040 -c 1 -i 39 -a 1 -x {0.0 2.0 24 ------- null}
- -t 0.38704 -s 1 -d 2 -p tcp -e 1040 -c 1 -i 39 -a 1 -x {0.0 2.0 24 ------- null}
h -t 0.38704 -s 1 -d 2 -p tcp -e 1040 -c 1 -i 39 -a 1 -x {0.0 2.0 -1 ------- null}
r -t 0.38808 -s 0 -d 1 -p tcp -e 1040 -c 1 -i 40 -a 1 -x {0.0 2.0 25 ------- null}
+ -t 0.38808 -s 1 -d 2 -p tcp -e 1040 -c 1 -i 40 -a 1 -x {0.0 2.0 25 ------- null}
- -t 0.38808 -s 1 -d 2 -p tcp -e 1040 -c 1 -i 40 -a 1 -x {0.0 2.0 25 ------- null}
h -t 0.38808 -s 1 -d 2 -p tcp -e 1040 -c 1 -i 40 -a 1 -x {0.0 2.0 -1 ------- null}
r -t 0.38872 -s 1 -d 2 -p tcp -e 1040 -c 1 -i 30 -a 1 -x {0.0 2.0 15 ------- null}
+ -t 0.38872 -s 2 -d 1 -p ack -e 40 -c 1 -i 46 -a 1 -x {2.0 0.0 15 ------- null}
- -t 0.38872 -s 2 -d 1 -p ack -e 40 -c 1 -i 46 -a 1 -x {2.0 0.0 15 ------- null}
h -t 0.38872 -s 2 -d 1 -p ack -e 40 -c 1 -i 46 -a 1 -x {2.0 0.0 -1 ------- null}
r -t 0.38912 -s 0 -d 1 -p tcp -e 1040 -c 1 -i 41 -a 1 -x {0.0 2.0 26 ------- null}
+ -t 0.38912 -s 1 -d 2 -p tcp -e 1040 -c 1 -i 41 -a 1 -x {0.0 2.0 26 ------- null}
- -t 0.38912 -s 1 -d 2 -p tcp -e 1040 -c 1 -i 41 -a 1 -x {0.0 2.0 26 ------- null}
h -t 0.38912 -s 1 -d 2 -p tcp -e 1040 -c 1 -i 41 -a 1 -x {0.0 2.0 -1 ------- null}
r -t 0.38976 -s 1 -d 2 -p tcp -e 1040 -c 1 -i 31 -a 1 -x {0.0 2.0 16 ------- null}
+ -t 0.38976 -s 2 -d 1 -p ack -e 40 -c 1 -i 47 -a 1 -x {2.0 0.0 16 ------- null}
- -t 0.38976 -s 2 -d 1 -p ack -e 40 -c 1 -i 47 -a 1 -x {2.0 0.0 16 ------- null}
h -t 0.38976 -s 2 -d 1 -p ack -e 40 -c 1 -i 47 -a 1 -x {2.0 0.0 -1 ------- null}
r -t 0.39016 -s 0 -d 1 -p tcp -e 1040 -c 1 -i 42 -a 1 -x {0.0 2.0 27 ------- null}
+ -t 0.39016 -s 1 -d 2 -p tcp -e 1040 -c 1 -i 42 -a 1 -x {0.0 2.0 27 ------- null}
- -t 0.39016 -s 1 -d 2 -p tcp -e 1040 -c 1 -i 42 -a 1 -x {0.0 2.0 27 ------- null}
h -t 0.39016 -s 1 -d 2 -p tcp -e 1040 -c 1 -i 42 -a 1 -x {0.0 2.0 -1 ------- null}
r -t 0.3908 -s 1 -d 2 -p tcp -e 1040 -c 1 -i 32 -a 1 -x {0.0 2.0 17 ------- null}
+ -t 0.3908 -s 2 -d 1 -p ack -e 40 -c 1 -i 48 -a 1 -x {2.0 0.0 17 ------- null}
- -t 0.3908 -s 2 -d 1 -p ack -e 40 -c 1 -i 48 -a 1 -x {2.0 0.0 17 ------- null}
h -t 0.3908 -s 2 -d 1 -p ack -e 40 -c 1 -i 48 -a 1 -x {2.0 0.0 -1 ------- null}
r -t 0.3912 -s 0 -d 1 -p tcp -e 1040 -c 1 -i 43 -a 1 -x {0.0 2.0 28 ------- null}
+ -t 0.3912 -s 1 -d 2 -p tcp -e 1040 -c 1 -i 43 -a 1 -x {0.0 2.0 28 ------- null}
- -t 0.3912 -s 1 -d 2 -p tcp -e 1040 -c 1 -i 43 -a 1 -x {0.0 2.0 28 ------- null}
h -t 0.3912 -s 1 -d 2 -p tcp -e 1040 -c 1 -i 43 -a 1 -x {0.0 2.0 -1 ------- null}
r -t 0.39184 -s 1 -d 2 -p tcp -e 1040 -c 1 -i 33 -a 1 -x {0.0 2.0 18 ------- null}
+ -t 0.39184 -s 2 -d 1 -p ack -e 40 -c 1 -i 49 -a 1 -x {2.0 0.0 18 ------- null}
- -t 0.39184 -s 2 -d 1 -p ack -e 40 -c 1 -i 49 -a 1 -x {2.0 0.0 18 ------- null}
h -t 0.39184 -s 2 -d 1 -p ack -e 40 -c 1 -i 49 -a 1 -x {2.0 0.0 -1 ------- null}
r -t 0.39224 -s 0 -d 1 -p tcp -e 1040 -c 1 -i 44 -a 1 -x {0.0 2.0 29 ------- null}
+ -t 0.39224 -s 1 -d 2 -p tcp -e 1040 -c 1 -i 44 -a 1 -x {0.0 2.0 29 ------- null}