+ 0.2 0 1 tcp 40 ------- 1 0.0 2.0 0 0
- 0.2 0 1 tcp 40 ------- 1 0.0 2.0 0 0
r 0.21004 0 1 tcp 40 ------- 1 0.0 2.0 0 0
+ 0.21004 1 2 tcp 40 ------- 1 0.0 2.0 0 0
- 0.21004 1 2 tcp 40 ------- 1 0.0 2.0 0 0
r 0.22008 1 2 tcp 40 ------- 1 0.0 2.0 0 0
+ 0.22008 2 1 ack 40 ------- 1 2.0 0.0 0 1
- 0.22008 2 1 ack 40 ------- 1 2.0 0.0 0 1
r 0.23012 2 1 ack 40 ------- 1 2.0 0.0 0 1
+ 0.23012 1 0 ack 40 ------- 1 2.0 0.0 0 1
- 0.23012 1 0 ack 40 ------- 1 2.0 0.0 0 1
r 0.24016 1 0 ack 40 ------- 1 2.0 0.0 0 1
+ 0.24016 0 1 tcp 1040 ------- 1 0.0 2.0 1 2
- 0.24016 0 1 tcp 1040 ------- 1 0.0 2.0 1 2
+ 0.24016 0 1 tcp 1040 ------- 1 0.0 2.0 2 3
- 0.2412 0 1 tcp 1040 ------- 1 0.0 2.0 2 3
r 0.2512 0 1 tcp 1040 ------- 1 0.0 2.0 1 2
+ 0.2512 1 2 tcp 1040 ------- 1 0.0 2.0 1 2
- 0.2512 1 2 tcp 1040 ------- 1 0.0 2.0 1 2
r 0.25224 0 1 tcp 1040 ------- 1 0.0 2.0 2 3
+ 0.25224 1 2 tcp 1040 ------- 1 0.0 2.0 2 3
- 0.25224 1 2 tcp 1040 ------- 1 0.0 2.0 2 3
r 0.26224 1 2 tcp 1040 ------- 1 0.0 2.0 1 2
+ 0.26224 2 1 ack 40 ------- 1 2.0 0.0 1 4
- 0.26224 2 1 ack 40 ------- 1 2.0 0.0 1 4
r 0.26328 1 2 tcp 1040 ------- 1 0.0 2.0 2 3
+ 0.26328 2 1 ack 40 ------- 1 2.0 0.0 2 5
- 0.26328 2 1 ack 40 ------- 1 2.0 0.0 2 5
r 0.27228 2 1 ack 40 ------- 1 2.0 0.0 1 4
+ 0.27228 1 0 ack 40 ------- 1 2.0 0.0 1 4
- 0.27228 1 0 ack 40 ------- 1 2.0 0.0 1 4
r 0.27332 2 1 ack 40 ------- 1 2.0 0.0 2 5
+ 0.27332 1 0 ack 40 ------- 1 2.0 0.0 2 5
- 0.27332 1 0 ack 40 ------- 1 2.0 0.0 2 5
r 0.28232 1 0 ack 40 ------- 1 2.0 0.0 1 4
+ 0.28232 0 1 tcp 1040 ------- 1 0.0 2.0 3 6
- 0.28232 0 1 tcp 1040 ------- 1 0.0 2.0 3 6
+ 0.28232 0 1 tcp 1040 ------- 1 0.0 2.0 4 7
- 0.28336 0 1 tcp 1040 ------- 1 0.0 2.0 4 7
r 0.28336 1 0 ack 40 ------- 1 2.0 0.0 2 5
+ 0.28336 0 1 tcp 1040 ------- 1 0.0 2.0 5 8
+ 0.28336 0 1 tcp 1040 ------- 1 0.0 2.0 6 9
- 0.2844 0 1 tcp 1040 ------- 1 0.0 2.0 5 8
- 0.28544 0 1 tcp 1040 ------- 1 0.0 2.0 6 9
r 0.29336 0 1 tcp 1040 ------- 1 0.0 2.0 3 6
+ 0.29336 1 2 tcp 1040 ------- 1 0.0 2.0 3 6
- 0.29336 1 2 tcp 1040 ------- 1 0.0 2.0 3 6
r 0.2944 0 1 tcp 1040 ------- 1 0.0 2.0 4 7
+ 0.2944 1 2 tcp 1040 ------- 1 0.0 2.0 4 7
- 0.2944 1 2 tcp 1040 ------- 1 0.0 2.0 4 7
r 0.29544 0 1 tcp 1040 ------- 1 0.0 2.0 5 8
+ 0.29544 1 2 tcp 1040 ------- 1 0.0 2.0 5 8
- 0.29544 1 2 tcp 1040 ------- 1 0.0 2.0 5 8
r 0.29648 0 1 tcp 1040 ------- 1 0.0 2.0 6 9
+ 0.29648 1 2 tcp 1040 ------- 1 0.0 2.0 6 9
- 0.29648 1 2 tcp 1040 ------- 1 0.0 2.0 6 9
r 0.3044 1 2 tcp 1040 ------- 1 0.0 2.0 3 6
+ 0.3044 2 1 ack 40 ------- 1 2.0 0.0 3 10
- 0.3044 2 1 ack 40 ------- 1 2.0 0.0 3 10
r 0.30544 1 2 tcp 1040 ------- 1 0.0 2.0 4 7
+ 0.30544 2 1 ack 40 ------- 1 2.0 0.0 4 11
- 0.30544 2 1 ack 40 ------- 1 2.0 0.0 4 11
r 0.30648 1 2 tcp 1040 ------- 1 0.0 2.0 5 8
+ 0.30648 2 1 ack 40 ------- 1 2.0 0.0 5 12
- 0.30648 2 1 ack 40 ------- 1 2.0 0.0 5 12
r 0.30752 1 2 tcp 1040 ------- 1 0.0 2.0 6 9
+ 0.30752 2 1 ack 40 ------- 1 2.0 0.0 6 13
- 0.30752 2 1 ack 40 ------- 1 2.0 0.0 6 13
r 0.31444 2 1 ack 40 ------- 1 2.0 0.0 3 10
+ 0.31444 1 0 ack 40 ------- 1 2.0 0.0 3 10
- 0.31444 1 0 ack 40 ------- 1 2.0 0.0 3 10
r 0.31548 2 1 ack 40 ------- 1 2.0 0.0 4 11
+ 0.31548 1 0 ack 40 ------- 1 2.0 0.0 4 11
- 0.31548 1 0 ack 40 ------- 1 2.0 0.0 4 11
r 0.31652 2 1 ack 40 ------- 1 2.0 0.0 5 12
+ 0.31652 1 0 ack 40 ------- 1 2.0 0.0 5 12
- 0.31652 1 0 ack 40 ------- 1 2.0 0.0 5 12
r 0.31756 2 1 ack 40 ------- 1 2.0 0.0 6 13
+ 0.31756 1 0 ack 40 ------- 1 2.0 0.0 6 13
- 0.31756 1 0 ack 40 ------- 1 2.0 0.0 6 13
r 0.32448 1 0 ack 40 ------- 1 2.0 0.0 3 10
+ 0.32448 0 1 tcp 1040 ------- 1 0.0 2.0 7 14
- 0.32448 0 1 tcp 1040 ------- 1 0.0 2.0 7 14
+ 0.32448 0 1 tcp 1040 ------- 1 0.0 2.0 8 15
r 0.32552 1 0 ack 40 ------- 1 2.0 0.0 4 11
+ 0.32552 0 1 tcp 1040 ------- 1 0.0 2.0 9 16
+ 0.32552 0 1 tcp 1040 ------- 1 0.0 2.0 10 17
- 0.32552 0 1 tcp 1040 ------- 1 0.0 2.0 8 15
r 0.32656 1 0 ack 40 ------- 1 2.0 0.0 5 12
+ 0.32656 0 1 tcp 1040 ------- 1 0.0 2.0 11 18
+ 0.32656 0 1 tcp 1040 ------- 1 0.0 2.0 12 19
- 0.32656 0 1 tcp 1040 ------- 1 0.0 2.0 9 16
r 0.3276 1 0 ack 40 ------- 1 2.0 0.0 6 13
+ 0.3276 0 1 tcp 1040 ------- 1 0.0 2.0 13 20
+ 0.3276 0 1 tcp 1040 ------- 1 0.0 2.0 14 21
- 0.3276 0 1 tcp 1040 ------- 1 0.0 2.0 10 17
- 0.32864 0 1 tcp 1040 ------- 1 0.0 2.0 11 18
- 0.32968 0 1 tcp 1040 ------- 1 0.0 2.0 12 19
- 0.33072 0 1 tcp 1040 ------- 1 0.0 2.0 13 20
- 0.33176 0 1 tcp 1040 ------- 1 0.0 2.0 14 21
r 0.33552 0 1 tcp 1040 ------- 1 0.0 2.0 7 14
+ 0.33552 1 2 tcp 1040 ------- 1 0.0 2.0 7 14
- 0.33552 1 2 tcp 1040 ------- 1 0.0 2.0 7 14
r 0.33656 0 1 tcp 1040 ------- 1 0.0 2.0 8 15
+ 0.33656 1 2 tcp 1040 ------- 1 0.0 2.0 8 15
- 0.33656 1 2 tcp 1040 ------- 1 0.0 2.0 8 15
r 0.3376 0 1 tcp 1040 ------- 1 0.0 2.0 9 16
+ 0.3376 1 2 tcp 1040 ------- 1 0.0 2.0 9 16
- 0.3376 1 2 tcp 1040 ------- 1 0.0 2.0 9 16
r 0.33864 0 1 tcp 1040 ------- 1 0.0 2.0 10 17
+ 0.33864 1 2 tcp 1040 ------- 1 0.0 2.0 10 17
- 0.33864 1 2 tcp 1040 ------- 1 0.0 2.0 10 17
r 0.33968 0 1 tcp 1040 ------- 1 0.0 2.0 11 18
+ 0.33968 1 2 tcp 1040 ------- 1 0.0 2.0 11 18
- 0.33968 1 2 tcp 1040 ------- 1 0.0 2.0 11 18
r 0.34072 0 1 tcp 1040 ------- 1 0.0 2.0 12 19
+ 0.34072 1 2 tcp 1040 ------- 1 0.0 2.0 12 19
- 0.34072 1 2 tcp 1040 ------- 1 0.0 2.0 12 19
r 0.34176 0 1 tcp 1040 ------- 1 0.0 2.0 13 20
+ 0.34176 1 2 tcp 1040 ------- 1 0.0 2.0 13 20
- 0.34176 1 2 tcp 1040 ------- 1 0.0 2.0 13 20
r 0.3428 0 1 tcp 1040 ------- 1 0.0 2.0 14 21
+ 0.3428 1 2 tcp 1040 ------- 1 0.0 2.0 14 21
- 0.3428 1 2 tcp 1040 ------- 1 0.0 2.0 14 21
r 0.34656 1 2 tcp 1040 ------- 1 0.0 2.0 7 14
+ 0.34656 2 1 ack 40 ------- 1 2.0 0.0 7 22
- 0.34656 2 1 ack 40 ------- 1 2.0 0.0 7 22
r 0.3476 1 2 tcp 1040 ------- 1 0.0 2.0 8 15
+ 0.3476 2 1 ack 40 ------- 1 2.0 0.0 8 23
- 0.3476 2 1 ack 40 ------- 1 2.0 0.0 8 23
r 0.34864 1 2 tcp 1040 ------- 1 0.0 2.0 9 16
+ 0.34864 2 1 ack 40 ------- 1 2.0 0.0 9 24
- 0.34864 2 1 ack 40 ------- 1 2.0 0.0 9 24
r 0.34968 1 2 tcp 1040 ------- 1 0.0 2.0 10 17
+ 0.34968 2 1 ack 40 ------- 1 2.0 0.0 10 25
- 0.34968 2 1 ack 40 ------- 1 2.0 0.0 10 25
r 0.35072 1 2 tcp 1040 ------- 1 0.0 2.0 11 18
+ 0.35072 2 1 ack 40 ------- 1 2.0 0.0 11 26
- 0.35072 2 1 ack 40 ------- 1 2.0 0.0 11 26
r 0.35176 1 2 tcp 1040 ------- 1 0.0 2.0 12 19
+ 0.35176 2 1 ack 40 ------- 1 2.0 0.0 12 27
- 0.35176 2 1 ack 40 ------- 1 2.0 0.0 12 27
r 0.3528 1 2 tcp 1040 ------- 1 0.0 2.0 13 20
+ 0.3528 2 1 ack 40 ------- 1 2.0 0.0 13 28
- 0.3528 2 1 ack 40 ------- 1 2.0 0.0 13 28
r 0.35384 1 2 tcp 1040 ------- 1 0.0 2.0 14 21
+ 0.35384 2 1 ack 40 ------- 1 2.0 0.0 14 29
- 0.35384 2 1 ack 40 ------- 1 2.0 0.0 14 29
r 0.3566 2 1 ack 40 ------- 1 2.0 0.0 7 22
+ 0.3566 1 0 ack 40 ------- 1 2.0 0.0 7 22
- 0.3566 1 0 ack 40 ------- 1 2.0 0.0 7 22
r 0.35764 2 1 ack 40 ------- 1 2.0 0.0 8 23
+ 0.35764 1 0 ack 40 ------- 1 2.0 0.0 8 23
- 0.35764 1 0 ack 40 ------- 1 2.0 0.0 8 23
r 0.35868 2 1 ack 40 ------- 1 2.0 0.0 9 24
+ 0.35868 1 0 ack 40 ------- 1 2.0 0.0 9 24
- 0.35868 1 0 ack 40 ------- 1 2.0 0.0 9 24
r 0.35972 2 1 ack 40 ------- 1 2.0 0.0 10 25
+ 0.35972 1 0 ack 40 ------- 1 2.0 0.0 10 25
- 0.35972 1 0 ack 40 ------- 1 2.0 0.0 10 25
r 0.36076 2 1 ack 40 ------- 1 2.0 0.0 11 26
+ 0.36076 1 0 ack 40 ------- 1 2.0 0.0 11 26
- 0.36076 1 0 ack 40 ------- 1 2.0 0.0 11 26
r 0.3618 2 1 ack 40 ------- 1 2.0 0.0 12 27
+ 0.3618 1 0 ack 40 ------- 1 2.0 0.0 12 27
- 0.3618 1 0 ack 40 ------- 1 2.0 0.0 12 27
r 0.36284 2 1 ack 40 ------- 1 2.0 0.0 13 28
+ 0.36284 1 0 ack 40 ------- 1 2.0 0.0 13 28
- 0.36284 1 0 ack 40 ------- 1 2.0 0.0 13 28
r 0.36388 2 1 ack 40 ------- 1 2.0 0.0 14 29
+ 0.36388 1 0 ack 40 ------- 1 2.0 0.0 14 29
- 0.36388 1 0 ack 40 ------- 1 2.0 0.0 14 29
r 0.36664 1 0 ack 40 ------- 1 2.0 0.0 7 22
+ 0.36664 0 1 tcp 1040 ------- 1 0.0 2.0 15 30
- 0.36664 0 1 tcp 1040 ------- 1 0.0 2.0 15 30
+ 0.36664 0 1 tcp 1040 ------- 1 0.0 2.0 16 31
r 0.36768 1 0 ack 40 ------- 1 2.0 0.0 8 23
+ 0.36768 0 1 tcp 1040 ------- 1 0.0 2.0 17 32
+ 0.36768 0 1 tcp 1040 ------- 1 0.0 2.0 18 33
- 0.36768 0 1 tcp 1040 ------- 1 0.0 2.0 16 31
r 0.36872 1 0 ack 40 ------- 1 2.0 0.0 9 24
+ 0.36872 0 1 tcp 1040 ------- 1 0.0 2.0 19 34
+ 0.36872 0 1 tcp 1040 ------- 1 0.0 2.0 20 35
- 0.36872 0 1 tcp 1040 ------- 1 0.0 2.0 17 32
r 0.36976 1 0 ack 40 ------- 1 2.0 0.0 10 25
+ 0.36976 0 1 tcp 1040 ------- 1 0.0 2.0 21 36
+ 0.36976 0 1 tcp 1040 ------- 1 0.0 2.0 22 37
- 0.36976 0 1 tcp 1040 ------- 1 0.0 2.0 18 33
r 0.3708 1 0 ack 40 ------- 1 2.0 0.0 11 26
+ 0.3708 0 1 tcp 1040 ------- 1 0.0 2.0 23 38
+ 0.3708 0 1 tcp 1040 ------- 1 0.0 2.0 24 39
- 0.3708 0 1 tcp 1040 ------- 1 0.0 2.0 19 34
r 0.37184 1 0 ack 40 ------- 1 2.0 0.0 12 27
+ 0.37184 0 1 tcp 1040 ------- 1 0.0 2.0 25 40
+ 0.37184 0 1 tcp 1040 ------- 1 0.0 2.0 26 41
- 0.37184 0 1 tcp 1040 ------- 1 0.0 2.0 20 35
r 0.37288 1 0 ack 40 ------- 1 2.0 0.0 13 28
+ 0.37288 0 1 tcp 1040 ------- 1 0.0 2.0 27 42
+ 0.37288 0 1 tcp 1040 ------- 1 0.0 2.0 28 43
- 0.37288 0 1 tcp 1040 ------- 1 0.0 2.0 21 36
r 0.37392 1 0 ack 40 ------- 1 2.0 0.0 14 29
+ 0.37392 0 1 tcp 1040 ------- 1 0.0 2.0 29 44
+ 0.37392 0 1 tcp 1040 ------- 1 0.0 2.0 30 45
- 0.37392 0 1 tcp 1040 ------- 1 0.0 2.0 22 37
- 0.37496 0 1 tcp 1040 ------- 1 0.0 2.0 23 38
- 0.376 0 1 tcp 1040 ------- 1 0.0 2.0 24 39
- 0.37704 0 1 tcp 1040 ------- 1 0.0 2.0 25 40
r 0.37768 0 1 tcp 1040 ------- 1 0.0 2.0 15 30
+ 0.37768 1 2 tcp 1040 ------- 1 0.0 2.0 15 30
- 0.37768 1 2 tcp 1040 ------- 1 0.0 2.0 15 30
- 0.37808 0 1 tcp 1040 ------- 1 0.0 2.0 26 41
r 0.37872 0 1 tcp 1040 ------- 1 0.0 2.0 16 31
+ 0.37872 1 2 tcp 1040 ------- 1 0.0 2.0 16 31
- 0.37872 1 2 tcp 1040 ------- 1 0.0 2.0 16 31
- 0.37912 0 1 tcp 1040 ------- 1 0.0 2.0 27 42
r 0.37976 0 1 tcp 1040 ------- 1 0.0 2.0 17 32
+ 0.37976 1 2 tcp 1040 ------- 1 0.0 2.0 17 32
- 0.37976 1 2 tcp 1040 ------- 1 0.0 2.0 17 32
- 0.38016 0 1 tcp 1040 ------- 1 0.0 2.0 28 43
r 0.3808 0 1 tcp 1040 ------- 1 0.0 2.0 18 33
+ 0.3808 1 2 tcp 1040 ------- 1 0.0 2.0 18 33
- 0.3808 1 2 tcp 1040 ------- 1 0.0 2.0 18 33
- 0.3812 0 1 tcp 1040 ------- 1 0.0 2.0 29 44
r 0.38184 0 1 tcp 1040 ------- 1 0.0 2.0 19 34
+ 0.38184 1 2 tcp 1040 ------- 1 0.0 2.0 19 34
- 0.38184 1 2 tcp 1040 ------- 1 0.0 2.0 19 34
- 0.38224 0 1 tcp 1040 ------- 1 0.0 2.0 30 45
r 0.38288 0 1 tcp 1040 ------- 1 0.0 2.0 20 35
+ 0.38288 1 2 tcp 1040 ------- 1 0.0 2.0 20 35
- 0.38288 1 2 tcp 1040 ------- 1 0.0 2.0 20 35
r 0.38392 0 1 tcp 1040 ------- 1 0.0 2.0 21 36
+ 0.38392 1 2 tcp 1040 ------- 1 0.0 2.0 21 36
- 0.38392 1 2 tcp 1040 ------- 1 0.0 2.0 21 36
r 0.38496 0 1 tcp 1040 ------- 1 0.0 2.0 22 37
+ 0.38496 1 2 tcp 1040 ------- 1 0.0 2.0 22 37
- 0.38496 1 2 tcp 1040 ------- 1 0.0 2.0 22 37
r 0.386 0 1 tcp 1040 ------- 1 0.0 2.0 23 38
+ 0.386 1 2 tcp 1040 ------- 1 0.0 2.0 23 38
- 0.386 1 2 tcp 1040 ------- 1 0.0 2.0 23 38
r 0.38704 0 1 tcp 1040 ------- 1 0.0 2.0 24 39
+ 0.38704 1 2 tcp 1040 ------- 1 0.0 2.0 24 39
- 0.38704 1 2 tcp 1040 ------- 1 0.0 2.0 24 39
r 0.38808 0 1 tcp 1040 ------- 1 0.0 2.0 25 40
+ 0.38808 1 2 tcp 1040 ------- 1 0.0 2.0 25 40
- 0.38808 1 2 tcp 1040 ------- 1 0.0 2.0 25 40
r 0.38872 1 2 tcp 1040 ------- 1 0.0 2.0 15 30
+ 0.38872 2 1 ack 40 ------- 1 2.0 0.0 15 46
- 0.38872 2 1 ack 40 ------- 1 2.0 0.0 15 46
r 0.38912 0 1 tcp 1040 ------- 1 0.0 2.0 26 41
+ 0.38912 1 2 tcp 1040 ------- 1 0.0 2.0 26 41
- 0.38912 1 2 tcp 1040 ------- 1 0.0 2.0 26 41
r 0.38976 1 2 tcp 1040 ------- 1 0.0 2.0 16 31
+ 0.38976 2 1 ack 40 ------- 1 2.0 0.0 16 47
- 0.38976 2 1 ack 40 ------- 1 2.0 0.0 16 47
r 0.39016 0 1 tcp 1040 ------- 1 0.0 2.0 27 42
+ 0.39016 1 2 tcp 1040 ------- 1 0.0 2.0 27 42
- 0.39016 1 2 tcp 1040 ------- 1 0.0 2.0 27 42
r 0.3908 1 2 tcp 1040 ------- 1 0.0 2.0 17 32
+ 0.3908 2 1 ack 40 ------- 1 2.0 0.0 17 48
- 0.3908 2 1 ack 40 ------- 1 2.0 0.0 17 48
r 0.3912 0 1 tcp 1040 ------- 1 0.0 2.0 28 43
+ 0.3912 1 2 tcp 1040 ------- 1 0.0 2.0 28 43
- 0.3912 1 2 tcp 1040 ------- 1 0.0 2.0 28 43
r 0.39184 1 2 tcp 1040 ------- 1 0.0 2.0 18 33
+ 0.39184 2 1 ack 40 ------- 1 2.0 0.0 18 49
- 0.39184 2 1 ack 40 ------- 1 2.0 0.0 18 49
r 0.39224 0 1 tcp 1040 ------- 1 0.0 2.0 29 44
+ 0.39224 1 2 tcp 1040 ------- 1 0.0 2.0 29 44
- 0.39224 1 2 tcp 1040 ------- 1 0.0 2.0 29 44
r 0.39288 1 2 tcp 1040 ------- 1 0.0 2.0 19 34
+ 0.39288 2 1 ack 40 ------- 1 2.0 0.0 19 50
- 0.39288 2 1 ack 40 ------- 1 2.0 0.0 19 50
r 0.39328 0 1 tcp 1040 ------- 1 0.0 2.0 30 45
+ 0.39328 1 2 tcp 1040 ------- 1 0.0 2.0 30 45
- 0.39328 1 2 tcp 1040 ------- 1 0.0 2.0 30 45
r 0.39392 1 2 tcp 1040 ------- 1 0.0 2.0 20 35
+ 0.39392 2 1 ack 40 ------- 1 2.0 0.0 20 51
- 0.39392 2 1 ack 40 ------- 1 2.0 0.0 20 51
r 0.39496 1 2 tcp 1040 ------- 1 0.0 2.0 21 36
+ 0.39496 2 1 ack 40 ------- 1 2.0 0.0 21 52
- 0.39496 2 1 ack 40 ------- 1 2.0 0.0 21 52
r 0.396 1 2 tcp 1040 ------- 1 0.0 2.0 22 37
+ 0.396 2 1 ack 40 ------- 1 2.0 0.0 22 53
- 0.396 2 1 ack 40 ------- 1 2.0 0.0 22 53
r 0.39704 1 2 tcp 1040 ------- 1 0.0 2.0 23 38
+ 0.39704 2 1 ack 40 ------- 1 2.0 0.0 23 54
- 0.39704 2 1 ack 40 ------- 1 2.0 0.0 23 54
r 0.39808 1 2 tcp 1040 ------- 1 0.0 2.0 24 39
+ 0.39808 2 1 ack 40 ------- 1 2.0 0.0 24 55
- 0.39808 2 1 ack 40 ------- 1 2.0 0.0 24 55
r 0.39876 2 1 ack 40 ------- 1 2.0 0.0 15 46
+ 0.39876 1 0 ack 40 ------- 1 2.0 0.0 15 46
- 0.39876 1 0 ack 40 ------- 1 2.0 0.0 15 46
r 0.39912 1 2 tcp 1040 ------- 1 0.0 2.0 25 40
+ 0.39912 2 1 ack 40 ------- 1 2.0 0.0 25 56
- 0.39912 2 1 ack 40 ------- 1 2.0 0.0 25 56
r 0.3998 2 1 ack 40 ------- 1 2.0 0.0 16 47
+ 0.3998 1 0 ack 40 ------- 1 2.0 0.0 16 47
- 0.3998 1 0 ack 40 ------- 1 2.0 0.0 16 47
r 0.40016 1 2 tcp 1040 ------- 1 0.0 2.0 26 41
+ 0.40016 2 1 ack 40 ------- 1 2.0 0.0 26 57
- 0.40016 2 1 ack 40 ------- 1 2.0 0.0 26 57
r 0.40084 2 1 ack 40 ------- 1 2.0 0.0 17 48
+ 0.40084 1 0 ack 40 ------- 1 2.0 0.0 17 48
- 0.40084 1 0 ack 40 ------- 1 2.0 0.0 17 48
r 0.4012 1 2 tcp 1040 ------- 1 0.0 2.0 27 42
+ 0.4012 2 1 ack 40 ------- 1 2.0 0.0 27 58
- 0.4012 2 1 ack 40 ------- 1 2.0 0.0 27 58
r 0.40188 2 1 ack 40 ------- 1 2.0 0.0 18 49
+ 0.40188 1 0 ack 40 ------- 1 2.0 0.0 18 49
- 0.40188 1 0 ack 40 ------- 1 2.0 0.0 18 49
r 0.40224 1 2 tcp 1040 ------- 1 0.0 2.0 28 43
+ 0.40224 2 1 ack 40 ------- 1 2.0 0.0 28 59
- 0.40224 2 1 ack 40 ------- 1 2.0 0.0 28 59
r 0.40292 2 1 ack 40 ------- 1 2.0 0.0 19 50
+ 0.40292 1 0 ack 40 ------- 1 2.0 0.0 19 50
- 0.40292 1 0 ack 40 ------- 1 2.0 0.0 19 50
r 0.40328 1 2 tcp 1040 ------- 1 0.0 2.0 29 44
+ 0.40328 2 1 ack 40 ------- 1 2.0 0.0 29 60
- 0.40328 2 1 ack 40 ------- 1 2.0 0.0 29 60
r 0.40396 2 1 ack 40 ------- 1 2.0 0.0 20 51
+ 0.40396 1 0 ack 40 ------- 1 2.0 0.0 20 51
- 0.40396 1 0 ack 40 ------- 1 2.0 0.0 20 51
r 0.40432 1 2 tcp 1040 ------- 1 0.0 2.0 30 45
+ 0.40432 2 1 ack 40 ------- 1 2.0 0.0 30 61
- 0.40432 2 1 ack 40 ------- 1 2.0 0.0 30 61
r 0.405 2 1 ack 40 ------- 1 2.0 0.0 21 52
+ 0.405 1 0 ack 40 ------- 1 2.0 0.0 21 52
- 0.405 1 0 ack 40 ------- 1 2.0 0.0 21 52
r 0.40604 2 1 ack 40 ------- 1 2.0 0.0 22 53
+ 0.40604 1 0 ack 40 ------- 1 2.0 0.0 22 53
- 0.40604 1 0 ack 40 ------- 1 2.0 0.0 22 53
r 0.40708 2 1 ack 40 ------- 1 2.0 0.0 23 54
+ 0.40708 1 0 ack 40 ------- 1 2.0 0.0 23 54
- 0.40708 1 0 ack 40 ------- 1 2.0 0.0 23 54
r 0.40812 2 1 ack 40 ------- 1 2.0 0.0 24 55
+ 0.40812 1 0 ack 40 ------- 1 2.0 0.0 24 55
- 0.40812 1 0 ack 40 ------- 1 2.0 0.0 24 55
r 0.4088 1 0 ack 40 ------- 1 2.0 0.0 15 46
+ 0.4088 0 1 tcp 1040 ------- 1 0.0 2.0 31 62
- 0.4088 0 1 tcp 1040 ------- 1 0.0 2.0 31 62
+ 0.4088 0 1 tcp 1040 ------- 1 0.0 2.0 32 63
r 0.40916 2 1 ack 40 ------- 1 2.0 0.0 25 56
+ 0.40916 1 0 ack 40 ------- 1 2.0 0.0 25 56
- 0.40916 1 0 ack 40 ------- 1 2.0 0.0 25 56
r 0.40984 1 0 ack 40 ------- 1 2.0 0.0 16 47
+ 0.40984 0 1 tcp 1040 ------- 1 0.0 2.0 33 64
+ 0.40984 0 1 tcp 1040 ------- 1 0.0 2.0 34 65
- 0.40984 0 1 tcp 1040 ------- 1 0.0 2.0 32 63
r 0.4102 2 1 ack 40 ------- 1 2.0 0.0 26 57
+ 0.4102 1 0 ack 40 ------- 1 2.0 0.0 26 57
- 0.4102 1 0 ack 40 ------- 1 2.0 0.0 26 57
r 0.41088 1 0 ack 40 ------- 1 2.0 0.0 17 48
+ 0.41088 0 1 tcp 1040 ------- 1 0.0 2.0 35 66
+ 0.41088 0 1 tcp 1040 ------- 1 0.0 2.0 36 67
- 0.41088 0 1 tcp 1040 ------- 1 0.0 2.0 33 64
r 0.41124 2 1 ack 40 ------- 1 2.0 0.0 27 58
+ 0.41124 1 0 ack 40 ------- 1 2.0 0.0 27 58
- 0.41124 1 0 ack 40 ------- 1 2.0 0.0 27 58
r 0.41192 1 0 ack 40 ------- 1 2.0 0.0 18 49
+ 0.41192 0 1 tcp 1040 ------- 1 0.0 2.0 37 68
+ 0.41192 0 1 tcp 1040 ------- 1 0.0 2.0 38 69
- 0.41192 0 1 tcp 1040 ------- 1 0.0 2.0 34 65
r 0.41228 2 1 ack 40 ------- 1 2.0 0.0 28 59
+ 0.41228 1 0 ack 40 ------- 1 2.0 0.0 28 59
- 0.41228 1 0 ack 40 ------- 1 2.0 0.0 28 59
r 0.41296 1 0 ack 40 ------- 1 2.0 0.0 19 50
+ 0.41296 0 1 tcp 1040 ------- 1 0.0 2.0 39 70
- 0.41296 0 1 tcp 1040 ------- 1 0.0 2.0 35 66
r 0.41332 2 1 ack 40 ------- 1 2.0 0.0 29 60
+ 0.41332 1 0 ack 40 ------- 1 2.0 0.0 29 60
- 0.41332 1 0 ack 40 ------- 1 2.0 0.0 29 60
r 0.414 1 0 ack 40 ------- 1 2.0 0.0 20 51
+ 0.414 0 1 tcp 1040 ------- 1 0.0 2.0 40 71
- 0.414 0 1 tcp 1040 ------- 1 0.0 2.0 36 67
r 0.41436 2 1 ack 40 ------- 1 2.0 0.0 30 61
+ 0.41436 1 0 ack 40 ------- 1 2.0 0.0 30 61
- 0.41436 1 0 ack 40 ------- 1 2.0 0.0 30 61
r 0.41504 1 0 ack 40 ------- 1 2.0 0.0 21 52
+ 0.41504 0 1 tcp 1040 ------- 1 0.0 2.0 41 72
- 0.41504 0 1 tcp 1040 ------- 1 0.0 2.0 37 68
r 0.41608 1 0 ack 40 ------- 1 2.0 0.0 22 53
+ 0.41608 0 1 tcp 1040 ------- 1 0.0 2.0 42 73
- 0.41608 0 1 tcp 1040 ------- 1 0.0 2.0 38 69
r 0.41712 1 0 ack 40 ------- 1 2.0 0.0 23 54
+ 0.41712 0 1 tcp 1040 ------- 1 0.0 2.0 43 74
- 0.41712 0 1 tcp 1040 ------- 1 0.0 2.0 39 70
r 0.41816 1 0 ack 40 ------- 1 2.0 0.0 24 55
+ 0.41816 0 1 tcp 1040 ------- 1 0.0 2.0 44 75
- 0.41816 0 1 tcp 1040 ------- 1 0.0 2.0 40 71
r 0.4192 1 0 ack 40 ------- 1 2.0 0.0 25 56
+ 0.4192 0 1 tcp 1040 ------- 1 0.0 2.0 45 76
- 0.4192 0 1 tcp 1040 ------- 1 0.0 2.0 41 72
r 0.41984 0 1 tcp 1040 ------- 1 0.0 2.0 31 62
+ 0.41984 1 2 tcp 1040 ------- 1 0.0 2.0 31 62
- 0.41984 1 2 tcp 1040 ------- 1 0.0 2.0 31 62
r 0.42024 1 0 ack 40 ------- 1 2.0 0.0 26 57
+ 0.42024 0 1 tcp 1040 ------- 1 0.0 2.0 46 77
- 0.42024 0 1 tcp 1040 ------- 1 0.0 2.0 42 73
r 0.42088 0 1 tcp 1040 ------- 1 0.0 2.0 32 63
+ 0.42088 1 2 tcp 1040 ------- 1 0.0 2.0 32 63
- 0.42088 1 2 tcp 1040 ------- 1 0.0 2.0 32 63
r 0.42128 1 0 ack 40 ------- 1 2.0 0.0 27 58
+ 0.42128 0 1 tcp 1040 ------- 1 0.0 2.0 47 78
- 0.42128 0 1 tcp 1040 ------- 1 0.0 2.0 43 74
r 0.42192 0 1 tcp 1040 ------- 1 0.0 2.0 33 64
+ 0.42192 1 2 tcp 1040 ------- 1 0.0 2.0 33 64
- 0.42192 1 2 tcp 1040 ------- 1 0.0 2.0 33 64
r 0.42232 1 0 ack 40 ------- 1 2.0 0.0 28 59
+ 0.42232 0 1 tcp 1040 ------- 1 0.0 2.0 48 79
- 0.42232 0 1 tcp 1040 ------- 1 0.0 2.0 44 75
r 0.42296 0 1 tcp 1040 ------- 1 0.0 2.0 34 65
+ 0.42296 1 2 tcp 1040 ------- 1 0.0 2.0 34 65
- 0.42296 1 2 tcp 1040 ------- 1 0.0 2.0 34 65
r 0.42336 1 0 ack 40 ------- 1 2.0 0.0 29 60
+ 0.42336 0 1 tcp 1040 ------- 1 0.0 2.0 49 80
- 0.42336 0 1 tcp 1040 ------- 1 0.0 2.0 45 76
r 0.424 0 1 tcp 1040 ------- 1 0.0 2.0 35 66
+ 0.424 1 2 tcp 1040 ------- 1 0.0 2.0 35 66
- 0.424 1 2 tcp 1040 ------- 1 0.0 2.0 35 66
r 0.4244 1 0 ack 40 ------- 1 2.0 0.0 30 61
+ 0.4244 0 1 tcp 1040 ------- 1 0.0 2.0 50 81
- 0.4244 0 1 tcp 1040 ------- 1 0.0 2.0 46 77
r 0.42504 0 1 tcp 1040 ------- 1 0.0 2.0 36 67
+ 0.42504 1 2 tcp 1040 ------- 1 0.0 2.0 36 67
- 0.42504 1 2 tcp 1040 ------- 1 0.0 2.0 36 67
- 0.42544 0 1 tcp 1040 ------- 1 0.0 2.0 47 78
r 0.42608 0 1 tcp 1040 ------- 1 0.0 2.0 37 68
+ 0.42608 1 2 tcp 1040 ------- 1 0.0 2.0 37 68
- 0.42608 1 2 tcp 1040 ------- 1 0.0 2.0 37 68
- 0.42648 0 1 tcp 1040 ------- 1 0.0 2.0 48 79
r 0.42712 0 1 tcp 1040 ------- 1 0.0 2.0 38 69
+ 0.42712 1 2 tcp 1040 ------- 1 0.0 2.0 38 69
- 0.42712 1 2 tcp 1040 ------- 1 0.0 2.0 38 69
- 0.42752 0 1 tcp 1040 ------- 1 0.0 2.0 49 80
r 0.42816 0 1 tcp 1040 ------- 1 0.0 2.0 39 70
+ 0.42816 1 2 tcp 1040 ------- 1 0.0 2.0 39 70
- 0.42816 1 2 tcp 1040 ------- 1 0.0 2.0 39 70
- 0.42856 0 1 tcp 1040 ------- 1 0.0 2.0 50 81
r 0.4292 0 1 tcp 1040 ------- 1 0.0 2.0 40 71
+ 0.4292 1 2 tcp 1040 ------- 1 0.0 2.0 40 71
- 0.4292 1 2 tcp 1040 ------- 1 0.0 2.0 40 71
r 0.43024 0 1 tcp 1040 ------- 1 0.0 2.0 41 72
+ 0.43024 1 2 tcp 1040 ------- 1 0.0 2.0 41 72
- 0.43024 1 2 tcp 1040 ------- 1 0.0 2.0 41 72
r 0.43088 1 2 tcp 1040 ------- 1 0.0 2.0 31 62
+ 0.43088 2 1 ack 40 ------- 1 2.0 0.0 31 82
- 0.43088 2 1 ack 40 ------- 1 2.0 0.0 31 82
r 0.43128 0 1 tcp 1040 ------- 1 0.0 2.0 42 73
+ 0.43128 1 2 tcp 1040 ------- 1 0.0 2.0 42 73
- 0.43128 1 2 tcp 1040 ------- 1 0.0 2.0 42 73
r 0.43192 1 2 tcp 1040 ------- 1 0.0 2.0 32 63
+ 0.43192 2 1 ack 40 ------- 1 2.0 0.0 32 83
- 0.43192 2 1 ack 40 ------- 1 2.0 0.0 32 83
r 0.43232 0 1 tcp 1040 ------- 1 0.0 2.0 43 74
+ 0.43232 1 2 tcp 1040 ------- 1 0.0 2.0 43 74
- 0.43232 1 2 tcp 1040 ------- 1 0.0 2.0 43 74
r 0.43296 1 2 tcp 1040 ------- 1 0.0 2.0 33 64
+ 0.43296 2 1 ack 40 ------- 1 2.0 0.0 33 84
- 0.43296 2 1 ack 40 ------- 1 2.0 0.0 33 84
r 0.43336 0 1 tcp 1040 ------- 1 0.0 2.0 44 75
+ 0.43336 1 2 tcp 1040 ------- 1 0.0 2.0 44 75
- 0.43336 1 2 tcp 1040 ------- 1 0.0 2.0 44 75
r 0.434 1 2 tcp 1040 ------- 1 0.0 2.0 34 65
+ 0.434 2 1 ack 40 ------- 1 2.0 0.0 34 85
- 0.434 2 1 ack 40 ------- 1 2.0 0.0 34 85
r 0.4344 0 1 tcp 1040 ------- 1 0.0 2.0 45 76
+ 0.4344 1 2 tcp 1040 ------- 1 0.0 2.0 45 76
- 0.4344 1 2 tcp 1040 ------- 1 0.0 2.0 45 76
r 0.43504 1 2 tcp 1040 ------- 1 0.0 2.0 35 66
+ 0.43504 2 1 ack 40 ------- 1 2.0 0.0 35 86
- 0.43504 2 1 ack 40 ------- 1 2.0 0.0 35 86
r 0.43544 0 1 tcp 1040 ------- 1 0.0 2.0 46 77
+ 0.43544 1 2 tcp 1040 ------- 1 0.0 2.0 46 77
- 0.43544 1 2 tcp 1040 ------- 1 0.0 2.0 46 77
r 0.43608 1 2 tcp 1040 ------- 1 0.0 2.0 36 67
+ 0.43608 2 1 ack 40 ------- 1 2.0 0.0 36 87
- 0.43608 2 1 ack 40 ------- 1 2.0 0.0 36 87
r 0.43648 0 1 tcp 1040 ------- 1 0.0 2.0 47 78
+ 0.43648 1 2 tcp 1040 ------- 1 0.0 2.0 47 78
- 0.43648 1 2 tcp 1040 ------- 1 0.0 2.0 47 78
r 0.43712 1 2 tcp 1040 ------- 1 0.0 2.0 37 68
+ 0.43712 2 1 ack 40 ------- 1 2.0 0.0 37 88
- 0.43712 2 1 ack 40 ------- 1 2.0 0.0 37 88
r 0.43752 0 1 tcp 1040 ------- 1 0.0 2.0 48 79
+ 0.43752 1 2 tcp 1040 ------- 1 0.0 2.0 48 79
- 0.43752 1 2 tcp 1040 ------- 1 0.0 2.0 48 79
r 0.43816 1 2 tcp 1040 ------- 1 0.0 2.0 38 69
+ 0.43816 2 1 ack 40 ------- 1 2.0 0.0 38 89
- 0.43816 2 1 ack 40 ------- 1 2.0 0.0 38 89
r 0.43856 0 1 tcp 1040 ------- 1 0.0 2.0 49 80
+ 0.43856 1 2 tcp 1040 ------- 1 0.0 2.0 49 80
- 0.43856 1 2 tcp 1040 ------- 1 0.0 2.0 49 80
r 0.4392 1 2 tcp 1040 ------- 1 0.0 2.0 39 70
+ 0.4392 2 1 ack 40 ------- 1 2.0 0.0 39 90
- 0.4392 2 1 ack 40 ------- 1 2.0 0.0 39 90
r 0.4396 0 1 tcp 1040 ------- 1 0.0 2.0 50 81
+ 0.4396 1 2 tcp 1040 ------- 1 0.0 2.0 50 81
- 0.4396 1 2 tcp 1040 ------- 1 0.0 2.0 50 81
r 0.44024 1 2 tcp 1040 ------- 1 0.0 2.0 40 71
+ 0.44024 2 1 ack 40 ------- 1 2.0 0.0 40 91
- 0.44024 2 1 ack 40 ------- 1 2.0 0.0 40 91
r 0.44092 2 1 ack 40 ------- 1 2.0 0.0 31 82
+ 0.44092 1 0 ack 40 ------- 1 2.0 0.0 31 82
- 0.44092 1 0 ack 40 ------- 1 2.0 0.0 31 82
r 0.44128 1 2 tcp 1040 ------- 1 0.0 2.0 41 72
+ 0.44128 2 1 ack 40 ------- 1 2.0 0.0 41 92
- 0.44128 2 1 ack 40 ------- 1 2.0 0.0 41 92
r 0.44196 2 1 ack 40 ------- 1 2.0 0.0 32 83
+ 0.44196 1 0 ack 40 ------- 1 2.0 0.0 32 83
- 0.44196 1 0 ack 40 ------- 1 2.0 0.0 32 83
r 0.44232 1 2 tcp 1040 ------- 1 0.0 2.0 42 73
+ 0.44232 2 1 ack 40 ------- 1 2.0 0.0 42 93
- 0.44232 2 1 ack 40 ------- 1 2.0 0.0 42 93
r 0.443 2 1 ack 40 ------- 1 2.0 0.0 33 84
+ 0.443 1 0 ack 40 ------- 1 2.0 0.0 33 84
- 0.443 1 0 ack 40 ------- 1 2.0 0.0 33 84
r 0.44336 1 2 tcp 1040 ------- 1 0.0 2.0 43 74
+ 0.44336 2 1 ack 40 ------- 1 2.0 0.0 43 94
- 0.44336 2 1 ack 40 ------- 1 2.0 0.0 43 94
r 0.44404 2 1 ack 40 ------- 1 2.0 0.0 34 85
+ 0.44404 1 0 ack 40 ------- 1 2.0 0.0 34 85
- 0.44404 1 0 ack 40 ------- 1 2.0 0.0 34 85
r 0.4444 1 2 tcp 1040 ------- 1 0.0 2.0 44 75
+ 0.4444 2 1 ack 40 ------- 1 2.0 0.0 44 95
- 0.4444 2 1 ack 40 ------- 1 2.0 0.0 44 95
r 0.44508 2 1 ack 40 ------- 1 2.0 0.0 35 86
+ 0.44508 1 0 ack 40 ------- 1 2.0 0.0 35 86
- 0.44508 1 0 ack 40 ------- 1 2.0 0.0 35 86
r 0.44544 1 2 tcp 1040 ------- 1 0.0 2.0 45 76
+ 0.44544 2 1 ack 40 ------- 1 2.0 0.0 45 96
- 0.44544 2 1 ack 40 ------- 1 2.0 0.0 45 96
r 0.44612 2 1 ack 40 ------- 1 2.0 0.0 36 87
+ 0.44612 1 0 ack 40 ------- 1 2.0 0.0 36 87
- 0.44612 1 0 ack 40 ------- 1 2.0 0.0 36 87
r 0.44648 1 2 tcp 1040 ------- 1 0.0 2.0 46 77
+ 0.44648 2 1 ack 40 ------- 1 2.0 0.0 46 97
- 0.44648 2 1 ack 40 ------- 1 2.0 0.0 46 97
r 0.44716 2 1 ack 40 ------- 1 2.0 0.0 37 88
+ 0.44716 1 0 ack 40 ------- 1 2.0 0.0 37 88
- 0.44716 1 0 ack 40 ------- 1 2.0 0.0 37 88
r 0.44752 1 2 tcp 1040 ------- 1 0.0 2.0 47 78
+ 0.44752 2 1 ack 40 ------- 1 2.0 0.0 47 98
- 0.44752 2 1 ack 40 ------- 1 2.0 0.0 47 98
r 0.4482 2 1 ack 40 ------- 1 2.0 0.0 38 89
+ 0.4482 1 0 ack 40 ------- 1 2.0 0.0 38 89
- 0.4482 1 0 ack 40 ------- 1 2.0 0.0 38 89
r 0.44856 1 2 tcp 1040 ------- 1 0.0 2.0 48 79
+ 0.44856 2 1 ack 40 ------- 1 2.0 0.0 48 99
- 0.44856 2 1 ack 40 ------- 1 2.0 0.0 48 99
r 0.44924 2 1 ack 40 ------- 1 2.0 0.0 39 90
+ 0.44924 1 0 ack 40 ------- 1 2.0 0.0 39 90
- 0.44924 1 0 ack 40 ------- 1 2.0 0.0 39 90
r 0.4496 1 2 tcp 1040 ------- 1 0.0 2.0 49 80
+ 0.4496 2 1 ack 40 ------- 1 2.0 0.0 49 100
- 0.4496 2 1 ack 40 ------- 1 2.0 0.0 49 100
r 0.45028 2 1 ack 40 ------- 1 2.0 0.0 40 91
+ 0.45028 1 0 ack 40 ------- 1 2.0 0.0 40 91
- 0.45028 1 0 ack 40 ------- 1 2.0 0.0 40 91
r 0.45064 1 2 tcp 1040 ------- 1 0.0 2.0 50 81
+ 0.45064 2 1 ack 40 ------- 1 2.0 0.0 50 101
- 0.45064 2 1 ack 40 ------- 1 2.0 0.0 50 101
r 0.45096 1 0 ack 40 ------- 1 2.0 0.0 31 82
+ 0.45096 0 1 tcp 1040 ------- 1 0.0 2.0 51 102
- 0.45096 0 1 tcp 1040 ------- 1 0.0 2.0 51 102
r 0.45132 2 1 ack 40 ------- 1 2.0 0.0 41 92
+ 0.45132 1 0 ack 40 ------- 1 2.0 0.0 41 92
- 0.45132 1 0 ack 40 ------- 1 2.0 0.0 41 92
r 0.452 1 0 ack 40 ------- 1 2.0 0.0 32 83
+ 0.452 0 1 tcp 1040 ------- 1 0.0 2.0 52 103
- 0.452 0 1 tcp 1040 ------- 1 0.0 2.0 52 103
r 0.45236 2 1 ack 40 ------- 1 2.0 0.0 42 93
+ 0.45236 1 0 ack 40 ------- 1 2.0 0.0 42 93
- 0.45236 1 0 ack 40 ------- 1 2.0 0.0 42 93
r 0.45304 1 0 ack 40 ------- 1 2.0 0.0 33 84
+ 0.45304 0 1 tcp 1040 ------- 1 0.0 2.0 53 104
- 0.45304 0 1 tcp 1040 ------- 1 0.0 2.0 53 104
r 0.4534 2 1 ack 40 ------- 1 2.0 0.0 43 94
+ 0.4534 1 0 ack 40 ------- 1 2.0 0.0 43 94
- 0.4534 1 0 ack 40 ------- 1 2.0 0.0 43 94
r 0.45408 1 0 ack 40 ------- 1 2.0 0.0 34 85
+ 0.45408 0 1 tcp 1040 ------- 1 0.0 2.0 54 105
- 0.45408 0 1 tcp 1040 ------- 1 0.0 2.0 54 105
r 0.45444 2 1 ack 40 ------- 1 2.0 0.0 44 95
+ 0.45444 1 0 ack 40 ------- 1 2.0 0.0 44 95
- 0.45444 1 0 ack 40 ------- 1 2.0 0.0 44 95
r 0.45512 1 0 ack 40 ------- 1 2.0 0.0 35 86
+ 0.45512 0 1 tcp 1040 ------- 1 0.0 2.0 55 106
- 0.45512 0 1 tcp 1040 ------- 1 0.0 2.0 55 106
r 0.45548 2 1 ack 40 ------- 1 2.0 0.0 45 96
+ 0.45548 1 0 ack 40 ------- 1 2.0 0.0 45 96
- 0.45548 1 0 ack 40 ------- 1 2.0 0.0 45 96
r 0.45616 1 0 ack 40 ------- 1 2.0 0.0 36 87
+ 0.45616 0 1 tcp 1040 ------- 1 0.0 2.0 56 107
- 0.45616 0 1 tcp 1040 ------- 1 0.0 2.0 56 107
r 0.45652 2 1 ack 40 ------- 1 2.0 0.0 46 97
+ 0.45652 1 0 ack 40 ------- 1 2.0 0.0 46 97
- 0.45652 1 0 ack 40 ------- 1 2.0 0.0 46 97
r 0.4572 1 0 ack 40 ------- 1 2.0 0.0 37 88
+ 0.4572 0 1 tcp 1040 ------- 1 0.0 2.0 57 108
- 0.4572 0 1 tcp 1040 ------- 1 0.0 2.0 57 108
r 0.45756 2 1 ack 40 ------- 1 2.0 0.0 47 98
+ 0.45756 1 0 ack 40 ------- 1 2.0 0.0 47 98
- 0.45756 1 0 ack 40 ------- 1 2.0 0.0 47 98
r 0.45824 1 0 ack 40 ------- 1 2.0 0.0 38 89
+ 0.45824 0 1 tcp 1040 ------- 1 0.0 2.0 58 109
- 0.45824 0 1 tcp 1040 ------- 1 0.0 2.0 58 109
r 0.4586 2 1 ack 40 ------- 1 2.0 0.0 48 99
+ 0.4586 1 0 ack 40 ------- 1 2.0 0.0 48 99
- 0.4586 1 0 ack 40 ------- 1 2.0 0.0 48 99
r 0.45928 1 0 ack 40 ------- 1 2.0 0.0 39 90
+ 0.45928 0 1 tcp 1040 ------- 1 0.0 2.0 59 110
- 0.45928 0 1 tcp 1040 ------- 1 0.0 2.0 59 110
r 0.45964 2 1 ack 40 ------- 1 2.0 0.0 49 100
+ 0.45964 1 0 ack 40 ------- 1 2.0 0.0 49 100
- 0.45964 1 0 ack 40 ------- 1 2.0 0.0 49 100
r 0.46032 1 0 ack 40 ------- 1 2.0 0.0 40 91
+ 0.46032 0 1 tcp 1040 ------- 1 0.0 2.0 60 111
- 0.46032 0 1 tcp 1040 ------- 1 0.0 2.0 60 111
r 0.46068 2 1 ack 40 ------- 1 2.0 0.0 50 101
+ 0.46068 1 0 ack 40 ------- 1 2.0 0.0 50 101
- 0.46068 1 0 ack 40 ------- 1 2.0 0.0 50 101
r 0.46136 1 0 ack 40 ------- 1 2.0 0.0 41 92
+ 0.46136 0 1 tcp 1040 ------- 1 0.0 2.0 61 112
- 0.46136 0 1 tcp 1040 ------- 1 0.0 2.0 61 112
r 0.462 0 1 tcp 1040 ------- 1 0.0 2.0 51 102
+ 0.462 1 2 tcp 1040 ------- 1 0.0 2.0 51 102
- 0.462 1 2 tcp 1040 ------- 1 0.0 2.0 51 102
r 0.4624 1 0 ack 40 ------- 1 2.0 0.0 42 93
+ 0.4624 0 1 tcp 1040 ------- 1 0.0 2.0 62 113
- 0.4624 0 1 tcp 1040 ------- 1 0.0 2.0 62 113
r 0.46304 0 1 tcp 1040 ------- 1 0.0 2.0 52 103
+ 0.46304 1 2 tcp 1040 ------- 1 0.0 2.0 52 103
- 0.46304 1 2 tcp 1040 ------- 1 0.0 2.0 52 103
r 0.46344 1 0 ack 40 ------- 1 2.0 0.0 43 94
+ 0.46344 0 1 tcp 1040 ------- 1 0.0 2.0 63 114
- 0.46344 0 1 tcp 1040 ------- 1 0.0 2.0 63 114
r 0.46408 0 1 tcp 1040 ------- 1 0.0 2.0 53 104
+ 0.46408 1 2 tcp 1040 ------- 1 0.0 2.0 53 104
- 0.46408 1 2 tcp 1040 ------- 1 0.0 2.0 53 104
r 0.46448 1 0 ack 40 ------- 1 2.0 0.0 44 95
+ 0.46448 0 1 tcp 1040 ------- 1 0.0 2.0 64 115
- 0.46448 0 1 tcp 1040 ------- 1 0.0 2.0 64 115
r 0.46512 0 1 tcp 1040 ------- 1 0.0 2.0 54 105
+ 0.46512 1 2 tcp 1040 ------- 1 0.0 2.0 54 105
- 0.46512 1 2 tcp 1040 ------- 1 0.0 2.0 54 105
r 0.46552 1 0 ack 40 ------- 1 2.0 0.0 45 96
+ 0.46552 0 1 tcp 1040 ------- 1 0.0 2.0 65 116
- 0.46552 0 1 tcp 1040 ------- 1 0.0 2.0 65 116
r 0.46616 0 1 tcp 1040 ------- 1 0.0 2.0 55 106
+ 0.46616 1 2 tcp 1040 ------- 1 0.0 2.0 55 106
- 0.46616 1 2 tcp 1040 ------- 1 0.0 2.0 55 106
r 0.46656 1 0 ack 40 ------- 1 2.0 0.0 46 97
+ 0.46656 0 1 tcp 1040 ------- 1 0.0 2.0 66 117
- 0.46656 0 1 tcp 1040 ------- 1 0.0 2.0 66 117
r 0.4672 0 1 tcp 1040 ------- 1 0.0 2.0 56 107
+ 0.4672 1 2 tcp 1040 ------- 1 0.0 2.0 56 107